# vtk DataFile Version 3.0
vtk output
ASCII
DATASET STRUCTURED_POINTS
DIMENSIONS 1 1 1
POINT_DATA
0.0 0.0 0.0
SCALARS wind_speed float
LOOKUP_TABLE default
0.846982
VECTORS wind_velocity float
0.62783 0.568513 -0.001017 0.978335 0.568513 -0.001017 0.978335 0.568513 -0.001017