# vtk DataFile Version 3.0
vtk output
ASCII
DATASET STRUCTURED_POINTS
DIMENSIONS 20 20 20
SPACING 1.0 1.0 1.0
ORIGIN 0.0 0.0 0.0
POINT_DATA 21525
SCALARS wind_speed float
LOOKUP_TABLE default
0.846982 1.13152 1.13152 1.31527 1.54028 1.79106 1.62632 2.21236 3.11703 
4.7088 4.60662 5.04362 4.93484 5.22771 5.23455 5.22771 5.55396 6.15937 
5.83097 3.45167 1.55893 1.4275 0.816032 1.31109 2.26665 3.15928 3.83138 
4.597 5.13 4.29018 2.71936 1.29703 1.07169 1.96295 2.93496 0.846982 
1.13152 1.31527 1.59331 1.78357 1.79106 1.22157 2.33613 4.03989 3.37514 
3.54677 4.36467 4.93484 5.24434 5.53826 4.91716 4.92444 4.61438 4.83651 
4.36467 0.573205 1.87502 1.1714 0.816032 1.6605 2.55239 3.14263 3.30613 
4.20716 3.71166 1.62298 0.920968 2.43214 2.91624 2.95121 0.846982 1.13152 
1.59331 1.89552 1.89552 0.846982 1.59331 4.3378 3.32979 2.25826 3.14977 
4.31631 4.61438 4.60662 4.60662 4.31631 4.62549 4.67065 3.75498 3.67299 
1.26022 1.1714 2.79279 1.94608 1.78245 2.2439 2.86419 3.04269 3.25949 
2.12064 1.94659 1.94659 4.66406 3.14263 4.71029 1.08027 1.59331 1.44535 
1.89552 0.846982 0.378735 3.74102 3.40304 1.1714 2.67946 3.36452 3.37514 
3.11703 3.05402 3.25371 3.0824 2.44775 2.84975 3.0824 2.25826 1.89514 
1.1714 2.79279 2.48017 1.91218 1.0227 1.38786 1.94659 1.69904 2.47389 
2.13876 2.06209 2.87121 2.2439 4.44531 0.846982 1.44535 1.69904 1.77297 
0.378735 2.10796 3.74547 0.921798 0.709027 2.91184 3.06571 2.12267 1.26287 
1.26287 1.19192 1.68823 1.4194 1.52567 2.12267 0.855166 1.1819 0.960513 
1.49759 3.27742 2.53985 1.1539 1.18792 2.13876 3.99792 4.2485 2.40791 
3.23479 6.08876 4.63993 3.78975 0.846982 0.846982 1.69904 1.77297 0.268118 
2.44731 2.39429 0.496027 2.13946 2.62139 0.573205 0.709027 0.960513 0.960513 
0.496027 0.370524 0.846982 0.456992 0.496027 0.558072 0.370524 0.573205 0.975866 
0.960513 0.882133 1.08027 3.57026 6.08876 5.96602 4.18745 2.04618 5.76307 
4.10903 3.42659 2.8792 0.632548 0.67875 2.10796 1.35364 0.456992 2.21204 
1.71818 0.846982 2.62139 0.709027 0.709027 0.728643 0.795942 1.36251 1.6605 
2.2279 2.57241 1.32432 1.04359 1.01177 0.921798 1.04359 1.01177 0.378735 
2.39429 3.79978 5.68438 6.71252 5.42732 1.69904 2.06209 3.34242 5.31141 
3.30649 1.96028 0.975866 1.01177 2.21204 0.456992 1.04359 1.89552 0.632548 
2.50324 1.1714 1.1714 0.960513 1.86149 1.6605 2.65276 3.25194 3.18673 
2.08413 1.35364 2.21236 3.04754 4.12077 3.75963 2.25188 2.00414 2.78941 
3.54268 5.06136 6.96019 3.1027 2.25595 3.34242 1.88013 2.71936 1.77348 
1.6218 0.975866 1.54028 1.89552 0.370524 1.78357 2.9361 2.70566 2.75655 
1.71728 2.79886 1.1539 1.94608 1.77348 3.18673 2.8792 2.31352 1.37759 
1.31527 2.25188 3.41203 2.77135 1.79106 2.05804 2.00414 2.9361 4.20623 
4.96008 5.56403 2.75491 5.66876 2.86419 2.86133 1.96028 1.96295 2.26665 
0.921798 2.33613 0.632548 0.573205 2.97875 2.50324 3.68476 2.1633 3.03913 
2.34707 4.15983 2.5527 1.94608 1.71519 0.67875 1.22157 2.33613 3.6568 
4.37797 4.37797 2.50324 0.921798 0.378735 0.846982 1.78357 3.87031 4.49677 
5.31915 4.93311 5.80285 3.18673 3.18673 2.49462 2.65276 3.18673 1.59331 
1.62632 0.370524 1.34517 2.05804 3.13338 3.20606 3.03913 3.82725 3.55737 
4.15983 4.44154 3.86247 4.00632 5.52788 6.47546 8.88446 6.33734 5.03348 
3.05402 1.58096 1.6218 2.65276 0.370524 0.456992 2.25188 3.87031 4.39676 
4.7622 4.00639 3.85807 3.55436 3.49479 4.44531 4.75298 1.59331 0.882133 
0.268118 1.35364 1.13152 3.41203 1.36251 1.51926 3.0824 3.55737 4.95468 
6.56655 7.54684 8.36888 6.79332 8.53065 10.5107 8.96534 7.09609 5.52788 
4.53462 4.2145 3.92011 1.6605 1.01177 2.25188 4.3327 3.87031 3.72765 
5.02244 4.73034 4.4211 5.72725 5.061 3.76965 1.44535 0.709027 1.1714 
0.72533 3.79117 2.00414 3.29731 2.6611 1.59331 2.21236 6.51496 7.07743 
7.73127 9.15124 9.30158 8.08185 7.3755 7.21412 7.42783 5.83097 8.15942 
7.45551 6.35509 4.73839 1.6218 1.31527 2.95546 2.13876 3.7803 5.3884 
5.64354 6.60471 7.31763 5.03975 3.92011 0.72533 0.9871 0.816032 0.378735 
1.35364 2.86133 3.12586 1.04359 2.49462 1.19192 1.44535 2.91184 4.91092 
7.3094 11.4236 9.86192 9.59587 9.74781 8.07446 7.44782 6.30861 7.15857 
8.19416 5.97662 2.53236 0.975866 2.21236 1.1539 5.34348 6.27036 7.2233 
8.98125 6.89097 4.76443 4.04476 0.795942 0.795942 1.07169 1.04359 1.62932 
2.65276 2.26665 2.2279 1.60721 0.795942 2.17911 5.04362 7.15785 11.4598 
13.7413 12.7563 11.4269 9.66707 6.59324 6.76048 7.92358 7.24043 8.15466 
8.72645 3.98611 2.17911 0.816032 2.07418 5.34348 6.88577 9.96895 8.13243 
6.36439 4.29167 3.83558 1.1819 0.816032 0.496027 0.456992 1.96295 2.49462 
2.26665 2.77538 2.43125 1.86149 3.54677 7.21412 12.2766 16.2064 18.4381 
17.9231 11.5448 9.90343 8.12838 7.39565 5.41121 3.05402 8.6889 11.6594 
5.01261 2.40111 1.91218 2.53236 5.69593 8.80339 9.46377 7.23749 5.75406 
4.09512 3.76965 1.1819 0.496027 1.58096 1.96295 2.99367 2.87948 1.6605 
1.91218 1.19192 4.61207 5.74367 8.03642 11.1679 15.9646 16.427 14.1676 
10.8333 4.90263 5.25571 8.66776 8.66776 4.86087 4.86677 10.9449 7.44267 
1.58096 2.20632 3.83558 6.92877 10.4377 8.44284 6.73827 6.27854 4.5422 
3.7803 1.1539 0.855166 1.94608 2.07418 2.53236 1.94608 1.91218 3.67503 
6.02769 6.60292 5.78681 6.45213 9.0174 14.4545 16.3977 20.9541 24.3198 
20.9842 10.2905 4.49808 8.76294 7.13461 0.855166 6.17992 6.3875 1.84384 
2.20632 4.19744 7.20843 10.4377 8.12803 6.36439 5.33299 3.80327 3.90416 
1.51926 1.77348 2.53236 1.94608 1.94608 2.46862 3.75498 5.24434 3.67503 
2.91184 3.87031 5.09005 8.12838 12.6974 17.6165 21.3609 19.9031 16.6341 
12.1795 5.73463 5.60429 8.68636 3.42718 5.12877 6.73773 2.43125 3.29731 
4.09512 8.4386 9.70093 8.44284 6.58844 5.02244 3.80327 3.22023 2.07418 
2.3885 1.94608 0.975866 2.96422 5.22771 4.92444 3.05402 1.79106 0.846982 
1.71818 3.74547 5.79666 7.36218 9.81176 14.4279 15.0572 12.9112 7.6423 
4.14882 7.31852 7.02108 4.06905 3.75498 6.04271 3.34271 3.11354 4.09512 
9.08117 8.75325 7.19634 6.27036 4.40948 3.18673 2.55239 2.53236 2.18036 
1.94608 2.25826 3.06571 4.49631 3.32979 3.13338 2.81276 3.52361 3.23479 
2.44731 4.72774 4.95996 5.66132 9.21024 11.9387 7.65907 6.94173 3.82487 
7.44026 6.75513 4.39676 4.40547 4.80745 3.38283 4.51597 3.80718 6.88577 
6.92877 5.65895 4.71949 3.48008 2.35745 1.50874 2.3885 0.728643 1.37759 
1.77297 2.04618 3.96506 3.79978 4.26797 4.41494 4.4596 4.38914 4.66666 
4.53374 4.2485 4.49808 5.54682 7.38391 5.25841 4.14882 5.39711 4.72774 
8.03668 5.72648 2.78941 4.51597 4.19744 4.29167 3.47782 5.64354 4.05728 
3.0619 2.53833 2.8792 1.6218 2.24925 2.7117 3.44155 5.62176 3.47906 
4.63993 6.41587 6.75005 6.75005 5.86397 6.37267 6.22459 6.73235 6.59644 
7.66761 8.01682 7.73004 6.61092 4.51929 4.84078 6.69338 5.66132 7.292 
5.88908 2.7098 3.76965 4.93689 4.13666 3.9455 5.14631 3.11354 2.07418 
2.07418 1.50874 1.91218 4.15983 3.38283 2.71936 3.71482 2.86419 2.43214 
3.01305 5.60054 8.00664 6.53217 6.62155 6.95264 7.66761 7.34027 5.56403 
7.38391 7.25406 6.41385 6.59148 7.44026 8.12811 6.61092 8.79294 6.75513 
2.43214 4.46833 4.04476 4.15983 4.63694 4.19744 2.3885 2.5527 2.19145 
2.02633 3.50698 4.92205 3.92128 1.96295 2.27814 2.49462 2.86133 4.17533 
5.01907 5.61042 5.09356 5.68438 5.76307 5.68438 5.00435 5.19082 6.75513 
7.73004 6.04564 5.39711 8.01578 6.96019 7.78643 8.45918 5.68438 3.30613 
1.96295 3.9372 6.51806 6.72562 1.94608 1.84384 3.77083 4.15983 3.03913 
4.00632 3.96308 2.27814 2.20632 3.68464 2.27814 1.1539 2.81276 3.45104 
4.18745 4.84753 3.90838 2.06209 4.88063 5.54682 4.51929 4.14882 4.18745 
4.49808 4.49808 6.96019 7.78643 7.75257 7.78389 6.73235 2.43214 2.36304 
7.21988 7.70501 9.08763 2.79886 4.62056 4.92205 5.44304 4.98351 2.46862 
2.75655 2.3885 1.86149 3.68464 2.67528 2.96422 2.62139 2.9361 3.82487 
4.14882 4.18745 3.79978 3.79978 4.18745 2.06209 2.13876 2.39429 4.22535 
5.60164 6.94323 5.71737 5.06172 7.6423 4.84959 2.10796 2.96422 9.97569 
10.2869 10.7412 6.75541 7.31386 7.12235 6.57678 5.37672 3.68476 2.97875 
2.61502 3.29731 2.24925 2.64323 3.50108 3.29468 3.29468 2.67946 0.975866 
1.37759 2.86419 2.40774 4.53374 2.25595 2.58806 4.17181 5.19082 4.56877 
4.12511 4.59341 7.09731 5.62176 2.40791 2.91184 5.88145 12.3856 12.1222 
12.336 9.0748 9.85475 8.62243 8.44989 6.08698 4.7088 4.72774 3.29731 
2.83923 3.27742 3.34531 3.86247 2.48017 1.71728 2.17911 1.94608 2.23834 
3.17059 2.57587 2.40774 2.91624 2.74302 4.51929 2.6611 2.9361 5.27323 
6.46665 4.51929 2.81276 2.95546 3.25371 9.09236 12.2188 12.5797 13.0816 
10.9371 11.6046 10.1325 9.6537 8.21001 3.50311 3.47865 1.6218 1.94608 
3.34531 3.24811 3.55936 2.67528 2.48017 2.53985 2.27814 2.43125 0.268118 
2.58806 2.8488 2.44731 2.5375 2.75491 2.52409 2.77135 5.02775 4.64555 
1.78357 3.11583 3.11703 4.89068 9.8054 10.5898 12.3506 12.871 12.1454 
12.2794 11.8158 10.5898 9.30914 4.31631 4.06905 1.60721 1.94608 1.91218 
1.86149 2.53985 3.44 3.86247 3.23802 2.58989 1.51926 1.52567 0.975866 
2.6611 2.91184 3.04754 2.5375 2.70566 4.19772 5.74367 2.9361 3.37514 
3.11703 3.04102 7.92058 8.41265 10.1325 10.9511 11.058 13.2075 12.5535 
12.2794 12.2794 11.4252 5.24434 3.18849 1.80948 1.25235 2.24925 1.91218 
1.84384 2.17911 4.04139 2.79279 4.04139 3.82725 3.45167 3.25371 2.70566 
4.19772 2.91184 2.9361 2.9361 4.3378 5.19551 3.06571 6.26079 3.11415 
4.89068 7.21815 6.14319 8.92613 9.26976 10.2662 12.7088 12.4408 12.5745 
12.7088 11.8928 5.66211 3.21588 2.06209 1.0227 1.26022 1.84384 2.24925 
2.17911 3.2992 3.2992 2.84443 2.84975 3.0824 3.14977 5.49034 2.81351 
3.0824 3.06571 2.70566 5.99591 4.64863 5.65084 6.26079 3.50698 6.06325 
6.0098 5.74889 7.58368 5.9949 9.8939 11.752 12.4072 12.8901 13.1689 
12.4536 7.68662 3.05402 2.81276 1.62298 1.02635 1.86149 3.62312 2.02633 
2.17911 3.29468 3.25371 3.0824 3.45167 5.24434 6.23616 5.31797 4.95654 
3.05402 6.23616 4.90263 6.51567 7.71456 5.53686 3.29468 5.08268 3.34531 
4.67853 6.3875 5.12038 8.40688 11.2774 12.8763 14.1069 13.7257 11.9476 
10.4278 4.10289 3.02234 2.59307 2.2279 1.77348 3.37451 1.91218 1.63715 
3.29468 2.46862 3.36452 3.06571 3.68476 5.74367 5.01301 5.24434 6.68392 
10.3586 7.54684 6.79332 9.36753 5.24465 3.29468 3.44 3.23802 4.80745 
5.76593 3.34531 7.18251 10.3472 10.8641 11.752 12.3135 12.1236 9.8246 
9.37652 3.52361 1.72393 2.2439 3.20726 1.49464 1.1539 1.26287 3.11415 
3.3903 4.60662 5.54472 6.68392 8.1963 6.23616 8.50052 9.01202 8.1963 
10.5049 10.488 12.4759 4.66736 5.24465 3.03913 3.34531 4.67853 5.02564 
3.23802 5.8045 8.0682 9.25168 11.2263 12.1928 12.4408 10.0136 8.03636 
3.71166 3.14263 3.01122 3.17059 2.2279 0.268118 0.573205 2.1633 3.80232 
5.01301 6.60292 7.02227 7.77462 9.65882 9.87993 8.87871 8.33331 9.90307 
11.2889 15.3736 6.82573 6.42384 3.04102 3.03913 3.27742 5.33701 4.98694 
3.27742 6.72562 8.25331 9.8939 11.4265 11.752 9.78281 8.0682 2.43214 
1.88013 2.86419 2.43214 1.62298 0.72533 0.632548 1.62632 4.03989 3.80232 
4.61207 5.31916 7.16585 9.15124 8.86936 9.01202 10.2002 11.509 11.7667 
15.4907 9.51814 7.50919 3.29468 3.29468 3.04102 3.27742 5.361 7.10608 
8.74649 9.84205 10.7763 11.357 11.0198 10.2607 8.82696 0.920968 1.65373 
2.12064 2.40774 1.94659 1.48991 1.04359 2.35279 2.52409 1.78357 3.18849 
3.87031 4.67205 5.06172 5.28638 5.78681 5.7309 4.89068 11.3168 13.756 
10.2053 7.79076 9.21481 5.83097 3.25371 3.04102 3.23802 6.03729 7.87469 
8.61693 8.22135 7.83379 8.22135 8.22135 8.22135 0.920968 2.58806 1.48991 
1.80948 1.48991 1.18792 1.37759 1.77297 1.65373 1.04359 2.06209 1.80948 
2.78941 3.1027 3.30305 2.35279 3.03913 5.5906 6.65709 10.222 8.37936 
6.42384 8.34375 8.83428 6.72219 4.66736 3.04102 2.93855 5.37918 5.25678 
3.26351 3.26351 3.03913 3.27742 5.68713 1.01177 2.7098 1.48991 1.80948 
1.65373 1.65373 1.94659 2.08413 3.04269 2.86419 3.42659 4.84633 4.20716 
5.62952 5.27852 3.55436 1.96295 2.67946 3.44 7.75671 7.82067 6.78049 
6.79332 6.2074 8.15692 6.72219 5.66211 5.66211 4.95468 3.29468 3.29468 
3.29468 3.04102 3.04102 3.34531 2.84967 2.86194 2.86194 2.31427 1.44034 
0.726875 0.848305 2.21287 3.42254 6.16536 7.54692 10.0634 10.8067 14.0427 
15.5173 15.6816 17.1682 20.1668 19.9089 18.3633 13.9457 10.5084 5.32013 
1.79566 3.42858 6.43041 6.6052 8.61926 9.72503 9.28238 8.29849 6.98116 
5.0017 3.25194 3.20726 2.53845 2.55242 2.55242 1.72393 1.38786 0.678751 
0.632548 3.11712 5.57325 6.26083 7.52742 9.49454 10.1047 12.3218 16.4742 
17.4356 16.8718 16.7836 17.0663 17.0294 12.0631 9.7881 6.33735 3.40306 
5.91511 7.43732 7.9044 9.08965 9.77393 8.83425 7.91247 5.58072 3.75447 
4.00639 2.95121 2.53845 2.55242 2.61383 1.88013 1.48991 0.725331 1.79122 
5.31917 5.53831 6.53212 8.93276 9.60311 10.9916 11.8014 14.8984 15.5836 
13.3497 13.9688 16.1097 14.5448 12.6392 8.31174 9.98399 9.7003 9.05233 
8.67776 9.2169 9.55768 9.2169 7.9044 7.9044 5.94986 4.66406 3.14263 
4.71029 2.57252 2.55242 2.91627 1.88013 1.02276 0.632673 4.37804 5.39351 
5.13321 7.41712 8.61248 9.51688 11.6276 11.2175 11.3941 12.1498 12.6841 
11.4466 12.3864 11.456 11.4236 8.12838 9.38026 9.7003 9.39753 8.91709 
9.57784 9.14101 8.51314 7.8156 8.67775 3.23479 2.87121 2.2439 5.061 
2.8793 2.55242 2.71939 1.88013 1.0227 2.05818 5.80242 4.30446 6.20742 
8.64803 9.33275 9.92416 8.93627 9.00531 9.13838 10.4261 8.98755 8.97613 
9.28598 11.4388 9.90343 7.82938 5.79668 9.3614 9.05784 9.3102 8.52195 
8.52195 8.071 9.47587 4.66666 3.23479 6.08876 4.63993 5.41663 2.8793 
2.84882 3.01124 2.43217 0.728642 2.8138 4.09632 4.34112 7.46565 9.31625 
9.60656 8.70764 8.70764 9.93172 9.00531 7.54684 7.10333 6.15941 6.46994 
9.46253 8.58162 7.58585 6.677 6.01664 5.92754 6.29763 8.71643 8.26523 
7.71651 6.43929 2.74302 5.76307 4.10904 3.42659 3.52537 2.95131 3.15931 
2.43218 3.01124 1.16755 3.65682 4.12511 5.74368 8.1963 8.67818 10.5156 
10.2258 9.51815 8.64739 7.12079 5.83098 4.66736 3.755 4.3411 4.7939 
7.4171 6.677 6.35441 5.55773 6.91965 6.75518 8.74505 6.71252 5.42732 
2.75491 3.15418 3.34242 5.31141 3.71482 3.1593 3.062 3.15931 2.71936 
3.48008 2.32348 3.92548 4.37799 7.73128 8.02275 9.27442 10.3026 13.1193 
10.9917 8.10634 6.40978 4.95469 4.31633 3.37514 2.43309 3.20609 5.72341 
5.96085 5.41121 6.17714 6.81238 6.04566 6.5869 6.96019 3.45105 4.10904 
5.3221 2.78898 3.75447 2.86133 3.01124 3.20735 2.5525 3.30649 4.40948 
1.94674 3.87143 6.02771 8.96535 9.31624 10.5073 10.6101 12.9304 13.4791 
7.52743 5.8059 4.83657 3.39033 2.12271 2.70566 3.41203 2.77135 1.79106 
2.97875 4.03462 4.9601 5.25573 4.96008 5.56403 2.75491 5.66876 3.30613 
3.22023 3.17059 3.85412 2.65278 3.062 2.22794 4.46834 4.4684 1.04366 
3.68477 6.78049 7.21412 9.26502 10.8759 12.1973 11.8855 12.3218 9.81956 
7.02169 4.67072 2.6214 3.6568 4.37797 4.37797 2.50324 0.921799 0.378736 
1.77297 3.18849 3.87031 4.49678 5.31915 4.93311 5.80285 3.78975 5.02956 
3.55435 3.48008 2.8795 2.8792 2.35745 4.5422 1.96032 1.18196 1.50209 
5.65102 7.02164 8.95448 11.1711 12.1973 12.4216 13.1763 10.3587 8.22086 
6.47546 8.88446 6.33734 5.03348 3.05402 1.58096 1.6218 2.65276 0.920968 
1.35364 2.25188 3.87031 4.39676 4.7622 4.00639 5.08124 5.69593 5.02244 
3.76967 3.38284 2.8792 2.93496 3.48605 2.35745 1.71727 4.81528 3.24818 
4.04139 9.29702 9.26502 11.5614 14.0243 14.2676 12.536 8.95445 8.53065 
10.5107 8.96534 7.0961 5.52788 4.53462 4.2145 3.92011 2.26665 1.35364 
2.25188 4.3327 3.87031 3.72765 5.02244 6.89841 7.19634 5.75407 4.0573 
3.64816 2.95123 3.12588 3.37453 2.71194 0.960594 3.50789 5.7489 5.37313 
4.54185 8.53066 12.1329 12.0631 13.0501 13.5311 11.8485 8.08184 7.3755 
7.21412 7.42783 5.83097 8.15942 7.45551 6.35509 4.73839 1.6218 1.31527 
2.95547 2.13877 3.7803 6.62023 8.13874 8.13874 6.67032 5.14632 4.5422 
3.0619 3.34271 3.34531 3.03922 2.17911 6.13838 6.58113 4.53462 5.54584 
10.8061 12.1498 12.9919 13.4078 12.3865 12.5588 9.86192 9.59587 9.74781 
8.07446 7.44782 6.30861 7.15857 8.19416 5.97662 2.53236 0.975866 2.21236 
1.1539 6.52486 7.51849 9.05973 8.4386 7.5069 6.58065 5.67789 3.12595 
2.43128 1.84388 3.95941 2.84445 3.47784 5.02565 5.70965 6.62601 8.14553 
8.22086 10.5355 13.9867 16.0274 13.7413 12.7563 11.4269 9.66707 6.59324 
6.76048 7.92358 7.24043 8.15466 8.72645 3.98611 2.17911 0.960512 1.86149 
6.52486 9.12898 10.302 10.3209 8.8492 7.38932 6.48544 2.70449 2.27818 
2.02637 3.04102 2.17911 1.49778 3.25374 3.9631 2.64326 3.2947 4.97722 
7.21412 12.2766 16.2064 18.4381 17.9231 11.5449 9.90343 8.12838 7.39565 
5.41121 3.05402 8.6889 11.6594 5.01261 3.03915 1.1539 1.86149 7.12332 
10.6208 10.9666 11.0513 10.1592 7.87492 6.70129 2.38862 2.24925 3.55936 
3.34531 3.68464 2.48029 3.95941 3.82727 1.19192 4.61207 5.74367 8.03642 
11.1679 15.9646 16.427 14.1676 10.8333 4.90264 5.25571 8.66776 8.66776 
4.86088 4.86677 10.9449 9.91028 3.27744 2.07418 2.70438 9.17876 11.2415 
12.2806 11.7869 11.2662 8.82255 6.42959 3.27744 3.44 3.68464 2.67528 
3.34533 2.64334 2.17915 3.67503 6.02769 6.60293 5.78681 6.45213 9.0174 
14.4545 16.3977 20.9541 24.3198 20.9842 10.2905 4.49808 8.76295 7.13461 
0.855165 7.15857 7.80505 5.72111 1.4947 3.64814 9.74572 12.1684 13.0061 
12.9392 11.5205 8.40564 6.79352 3.77085 2.58989 2.55273 1.91222 2.24928 
2.46862 3.75498 5.24434 3.67503 2.91184 3.87031 5.09005 8.12838 12.6974 
17.6165 21.3609 19.9031 16.6341 12.1795 5.73463 5.60429 8.68636 3.42719 
4.81529 7.0926 6.54372 2.07418 4.0573 10.6208 12.2045 13.8398 13.5496 
11.969 9.45655 6.96684 3.27744 2.5527 1.94608 0.975866 2.96422 5.22771 
4.92443 3.05402 1.79106 0.846983 1.71818 4.79535 5.79667 7.36218 9.81177 
14.4279 15.0572 12.9112 7.6423 4.14882 7.31852 7.02108 5.27892 4.03991 
2.23836 6.53472 2.95121 4.54222 10.3209 13.0061 14.1373 13.9475 10.6164 
8.4128 6.73214 1.84419 2.43125 1.94608 2.25826 3.06571 4.49631 3.32979 
3.13338 3.10271 3.66807 3.79117 4.20623 6.32115 7.08529 7.44027 9.21024 
11.9387 7.65908 6.94173 3.82487 8.94468 8.26533 7.3509 5.19556 0.728718 
5.62174 5.3884 5.38841 6.89106 13.0366 15.069 13.468 11.1653 7.9044 
5.60066 2.61545 0.728642 1.37759 1.77297 2.04618 3.96507 3.79978 4.66668 
4.76222 5.09356 4.93311 5.19083 5.39711 10.04 9.70029 10.3804 12.736 
10.1197 5.21548 7.68255 9.11792 8.99182 6.75513 6.94327 2.78907 5.93106 
5.72725 4.7304 5.19487 9.5555 12.9396 12.5511 10.9236 6.41588 4.10911 
2.7117 3.44156 5.62177 3.47906 5.31141 7.82413 8.1516 8.04836 6.77929 
7.00643 6.31314 8.36615 9.3614 8.26534 8.94467 9.69318 9.11256 13.5921 
11.0631 10.0086 6.01664 10.6553 10.999 5.53014 3.99163 7.53275 5.41665 
2.61383 3.90423 6.42964 9.9037 8.92834 8.35921 3.72767 1.37763 3.38283 
2.71936 4.13588 4.84959 6.36901 8.38173 8.81185 9.31018 8.43892 11.146 
9.3975 10.5492 9.43437 11.3045 11.5537 11.0696 8.79295 8.35046 8.79295 
7.39565 10.8792 10.1197 9.68049 7.78397 6.75009 7.11943 3.99164 3.04272 
2.2444 3.49741 5.62957 5.89194 3.49731 0.678868 1.31109 4.57333 3.3528 
3.30622 4.38921 4.76227 7.05834 8.29306 9.13232 11.8632 10.1075 10.1614 
12.9503 12.0911 11.4008 11.5416 10.4109 14.2908 13.3931 15.8237 13.0354 
11.365 11.8596 8.91932 9.04733 4.41256 2.78921 2.53753 1.91251 2.55292 
0.633558 1.49011 1.85581 1.1678 0.573205 6.8371 3.58111 3.062 2.53845 
3.04279 3.16796 4.76227 5.34374 6.59648 7.65909 7.34028 9.96934 9.70032 
11.1355 10.4593 12.5989 11.6396 11.7343 12.8849 13.4958 11.8196 12.583 
12.123 9.87437 8.63116 3.79117 3.04763 2.74354 6.75551 6.33332 5.09449 
2.84454 2.36317 1.26337 6.06444 8.92613 3.58088 2.77541 1.96032 2.24403 
1.62303 2.40778 2.70991 3.49742 3.45107 4.9782 7.45941 7.68254 8.26533 
11.2161 10.5432 11.0549 11.6936 10.7475 10.8901 11.3 11.8683 11.3649 
11.2435 8.71555 4.64555 6.49991 6.95348 10.6889 10.7931 9.89227 7.49972 
5.91065 4.66742 8.52377 9.51061 3.36789 3.12586 2.87948 1.96032 1.50879 
1.6605 1.07176 0.72875 1.3537 2.66113 3.47867 5.54093 5.54092 7.6884 
7.68254 10.3668 7.70946 9.97475 10.087 12.4262 12.1303 8.21914 9.11792 
6.41385 5.744 9.07485 11.847 14.6994 15.001 14.4301 10.9564 10.5297 
6.33472 9.59312 9.12488 2.9937 3.58418 3.12588 3.12586 2.43128 2.67106 
1.71519 1.18196 0.728642 0.370524 2.06241 3.09217 1.48991 3.49748 7.90121 
7.40328 6.64349 9.68049 11.23 11.1497 8.12839 8.47577 6.04565 3.45805 
6.80911 12.1918 14.8056 17.0769 18.8397 17.9188 14.4213 14.4093 9.54789 
11.0281 9.34833 3.11356 2.99367 2.83926 3.80718 3.80537 4.24417 2.43128 
2.23833 1.96298 1.50893 2.25216 2.0621 1.1316 2.25265 6.42783 3.66633 
8.26534 9.38022 10.6508 7.3755 8.57666 6.70626 3.87142 4.67065 9.64265 
13.3828 16.298 19.3054 20.2789 19.8954 18.1907 18.3275 11.8929 15.0109 
10.7297 2.93496 2.87948 2.83923 3.8072 3.80719 4.85235 3.92195 4.3045 
3.11363 1.02697 2.46865 2.25855 2.13959 6.1909 5.54473 3.32988 4.79536 
7.35076 8.13173 8.96418 9.57935 8.39023 5.95003 7.94238 11.847 15.5872 
17.7229 18.7525 20.1574 21.0377 21.0408 17.1443 17.1125 17.761 13.4023 
2.35769 3.38284 3.11355 4.30448 4.73839 4.77279 4.51589 5.14028 4.05026 
2.93877 4.00634 5.66223 4.92466 7.40162 4.83651 4.30447 4.3327 4.75093 
9.07485 10.9706 12.8665 11.2175 9.77814 10.713 13.5497 15.4744 18.0457 
19.013 23.1359 21.6914 22.9079 19.0871 21.4175 13.5653 16.1256 1.63031 
3.20728 3.58418 4.51598 4.29166 4.98376 6.3876 5.89736 5.01267 5.44305 
6.33463 7.12298 9.29709 7.54684 5.66213 4.74138 3.04763 6.78576 10.8759 
12.8665 13.3837 14.6159 13.7845 13.3987 12.633 13.6296 18.6486 16.5329 
21.4175 22.0885 24.356 20.4755 18.0457 19.789 11.0423 1.72702 2.93498 
4.97028 5.8993 4.73839 5.24111 7.18634 6.75958 5.36101 4.97561 6.05398 
8.37939 10.3586 10.3586 8.76855 5.37677 8.33774 7.41711 13.2757 16.0583 
15.2385 16.7535 13.9566 12.9305 11.3527 12.1236 16.1655 18.8594 19.4219 
24.9175 26.7631 20.6963 24.9338 17.8074 19.4548 2.43606 2.7754 3.92013 
6.13447 4.97028 5.89929 7.11433 5.90381 4.05021 3.77082 4.70379 7.39317 
8.76856 9.33275 8.83435 9.26891 14.5954 13.6447 15.6216 16.8764 18.5342 
13.4543 12.8282 11.4033 10.7705 9.24669 13.0671 17.117 18.3892 24.9704 
21.3342 23.3993 22.7839 18.3249 12.5181 2.61632 3.35273 4.54221 6.23328 
5.62175 5.45755 7.06188 5.6045 3.64121 3.77085 4.20708 6.56656 9.02451 
9.44291 12.9987 14.2367 14.255 18.0234 21.2957 18.91 18.5927 12.6838 
13.0478 10.9592 9.80525 7.12235 12.0789 10.2764 17.6806 18.8143 22.476 
16.6973 18.3556 16.5933 18.1152 2.71974 2.86133 4.44531 5.08124 4.77452 
4.19744 7.21418 5.67191 1.86153 2.36308 3.84261 6.47546 8.3376 10.8359 
14.2478 16.1649 18.2487 19.5366 24.262 22.8447 20.1769 12.9304 14.3306 
12.213 11.8648 8.14554 8.89081 12.1928 14.2452 15.7732 18.5493 19.7356 
18.0744 15.7022 13.1297 2.43226 2.08416 3.30615 3.60433 3.48008 3.64678 
5.90083 3.83559 1.86149 1.71727 3.14977 5.23455 7.42784 10.5525 12.7309 
16.4466 20.6012 22.459 26.287 24.4139 21.8209 11.0996 15.4593 13.0855 
11.9226 9.83037 7.49963 9.04495 9.84084 12.633 14.6043 13.3987 11.884 
10.5909 8.82714 1.62316 2.12068 3.25952 2.78901 2.71936 3.18673 4.19746 
2.49465 3.12588 1.02635 2.44775 3.68477 4.70881 6.56664 10.3586 16.8597 
17.8443 22.2469 22.3119 21.7044 21.5992 16.7712 15.3748 15.3736 12.4844 
11.9105 9.12117 8.46832 10.6044 12.2936 12.5643 9.30914 8.18837 6.76591 
6.06495 1.43919 2.12068 1.65378 1.38786 1.32432 3.0619 2.77541 1.96028 
3.9434 1.96028 0.882196 0.882411 2.84976 5.34687 11.494 12.8667 13.5402 
16.8897 17.5587 16.7501 16.0273 19.238 18.331 14.9783 11.4939 11.2175 
9.35496 12.6645 13.9614 11.203 7.12079 5.80585 5.09427 3.26351 2.48058 
1.62398 1.3886 0.924443 0.925519 0.992485 2.35971 2.26956 3.7714 4.40232 
3.17227 2.53999 2.269 1.51066 3.55218 4.31122 6.47999 10.3605 15.6293 
15.5062 14.465 13.3354 17.3638 17.5587 16.2946 13.9736 10.5049 7.62315 
7.12083 6.08698 6.33462 3.54677 2.84976 2.77512 2.81351 1.22289 5.64625 
5.02473 4.40397 3.1898 2.27029 1.25779 1.58446 3.2656 6.54027 10.1556 
12.9304 15.7782 18.1971 22.2257 26.5054 28.6834 30.4233 34.4649 33.1467 
28.0865 22.6688 16.1051 9.31975 3.62494 2.73031 6.34524 6.99682 8.83575 
9.72595 9.72562 8.74429 7.41734 6.83425 5.41725 4.81235 5.03997 4.73036 
3.80329 2.84882 1.6605 0.85523 2.36304 6.05408 10.2869 13.2654 15.5871 
18.1675 20.2836 22.8268 27.8708 30.7734 28.5555 28.5441 30.1522 26.6605 
20.2371 15.1714 10.6582 5.88909 6.08881 8.20502 9.08965 10.3462 10.4938 
9.75885 8.83424 6.96681 6.96681 4.66295 4.46676 4.73058 4.42112 3.46981 
2.55242 0.987155 1.26026 4.98373 9.80541 12.6187 14.6554 17.6759 20.0147 
21.697 23.7523 27.5365 28.1956 25.0927 24.8312 25.1078 24.0177 18.0982 
14.0907 11.7669 10.5432 10.3343 9.57786 10.9983 11.0867 10.9983 9.81504 
9.34675 8.09804 8.38557 5.66877 5.1323 4.77475 4.42112 3.46981 2.55239 
0.796011 3.29487 8.41098 11.1984 13.1257 17.0769 19.6616 20.3715 21.9924 
22.5026 24.8324 23.4544 20.8886 18.9261 20.6272 20.1904 17.141 14.1016 
11.5111 12.9882 12.5579 10.9092 11.4557 10.7989 10.194 9.73439 9.14101 
8.52195 8.26523 5.9151 5.48421 4.73058 4.40138 3.48011 2.24393 0.960594 
5.28443 9.33277 11.2177 14.4647 18.4436 19.4613 20.1366 20.2399 20.2399 
19.6229 16.9569 14.8612 15.4756 16.8076 16.594 15.3216 13.8271 11.4128 
11.5537 11.2064 11.2581 10.1226 10.3705 9.68275 9.79829 9.79829 8.81185 
9.05232 6.95265 6.08881 4.73058 4.73036 3.78983 2.31354 1.22163 6.54317 
9.00755 12.1974 17.0973 19.0176 19.6743 20.4508 19.185 16.5931 14.968 
12.8119 11.4422 11.547 11.8709 13.9521 13.8618 12.799 12.1795 10.8792 
11.0631 10.8283 10.2185 9.81282 9.47795 8.81184 8.81185 8.63114 8.78543 
7.71652 6.43931 4.46858 4.73036 3.52545 3.42661 2.44734 7.87756 10.0589 
14.8684 17.9611 18.9085 22.6476 21.1457 16.154 14.4671 12.4844 10.2583 
8.0336 7.51961 8.31174 10.161 11.5714 10.6013 11.6159 10.7962 10.999 
11.3432 10.4453 9.09342 7.46222 7.3864 8.04836 8.49212 7.70115 7.62007 
6.95265 4.54258 5.03981 4.75298 5.70577 4.18761 8.75242 12.1625 18.1674 
18.6078 20.1369 21.4069 22.0919 18.9807 14.3759 10.73 8.76859 7.1185 
6.48482 6.33734 7.82946 9.54145 9.08358 8.77838 9.78278 9.78278 9.78281 
9.4469 8.35048 7.00644 6.85545 6.4393 7.40164 7.28563 6.95268 5.34369 
4.6418 4.73048 6.89098 8.4691 4.24865 8.6533 14.6412 20.0116 20.4887 
21.4432 21.0894 22.9303 21.4735 13.9299 10.2584 8.64395 6.60459 4.91098 
5.96014 7.12516 6.42293 5.88909 5.06136 5.60166 6.81238 7.90118 8.45919 
7.90118 7.29202 6.08877 6.85547 6.22468 5.76308 5.61047 4.10905 4.64156 
4.46835 8.87236 9.17888 2.38853 9.33281 14.9669 18.2879 22.3836 21.9986 
22.3131 20.7605 21.2008 17.1949 12.4093 8.47477 6.25329 6.46666 6.51496 
7.05055 4.37798 3.41205 2.21206 2.6611 4.20624 5.60497 7.00617 6.64349 
6.41386 4.66668 4.45966 5.20163 5.01912 4.55459 2.58816 4.54222 4.76445 
7.81564 6.64604 7.46432 10.1116 15.0708 17.86 23.0028 22.9433 20.4552 
19.8246 19.8264 17.0574 12.8426 10.8756 9.81414 7.61797 6.51496 4.92445 
3.39086 2.36307 0.796011 1.13153 2.5375 4.12511 5.72342 5.53005 3.63223 
3.16805 3.95512 4.20717 4.01931 3.04277 2.31362 4.64143 4.5464 6.16641 
6.42966 7.98633 13.0816 10.2203 11.6623 21.3126 23.8702 23.8702 21.3791 
18.3198 16.1522 12.4091 11.7535 11.4598 10.1448 8.57666 6.56656 6.06325 
4.637 3.58424 1.07176 2.35282 3.87141 5.5417 4.75093 2.00417 2.08424 
3.22041 3.78982 3.78037 2.84888 2.57263 4.05728 4.30454 6.06935 10.6038 
11.7798 12.2614 9.55315 12.2189 12.0849 18.9394 27.0316 26.5262 22.4012 
18.2823 13.9262 12.0674 9.72146 8.43828 8.95844 8.22756 8.37911 6.39406 
5.77718 5.31863 1.15415 2.62142 4.49631 4.30442 0.380234 2.24401 3.80333 
4.77457 4.9369 3.64685 3.25201 3.92019 2.83925 6.53072 10.4734 12.5745 
13.0787 10.9596 8.28397 8.73002 19.2969 22.9916 26.3141 27.7426 24.063 
19.1153 13.2756 12.9026 11.4939 9.13841 9.09242 7.04506 7.21445 8.14293 
6.65669 3.2974 3.14987 5.13316 5.43142 2.40113 1.96031 4.64148 5.23415 
5.53279 4.77453 3.78032 4.04518 2.61513 4.27043 10.2053 8.03362 2.36308 
6.72566 10.4596 12.7433 13.6422 14.3506 18.8136 25.9082 29.0975 24.3419 
20.4434 16.2064 12.9927 7.40165 3.755 3.96308 5.73737 7.83379 7.54584 
6.03748 5.44315 6.33463 6.08699 3.39086 3.20728 5.63638 7.04165 6.58845 
5.36932 4.81197 3.58128 3.27744 6.0633 7.79077 5.57325 3.90738 8.69879 
9.0688 5.8059 6.82419 9.00747 13.2332 20.2326 24.3264 27.0838 23.446 
15.9691 13.7545 11.5347 9.07008 5.41121 3.05402 6.6024 8.74649 7.39424 
7.87082 7.46598 6.95347 1.41944 3.49481 5.69593 7.5185 7.62326 5.79742 
5.00191 3.37484 5.68549 7.9816 6.99831 6.05399 6.14355 9.74781 9.26895 
5.49065 7.73135 9.58932 13.2814 16.2681 20.1949 20.6258 19.7074 13.8271 
5.80241 6.01664 9.3178 10.0086 9.38023 5.19613 3.55766 6.30865 6.53082 
6.99831 4.81529 0.847048 4.40948 6.6472 8.49481 8.57422 6.70124 5.13022 
4.92218 7.69315 7.31386 6.28711 6.28711 6.33472 6.95356 7.10341 8.36811 
9.26514 11.2542 12.8378 13.5768 17.6702 19.383 23.093 24.3198 20.9842 
10.2905 4.49808 9.07009 9.54668 8.62123 6.06792 3.755 6.28714 5.65103 
3.05404 3.49741 5.71641 7.69326 9.10947 9.11814 6.26912 4.29058 5.91071 
5.9106 4.50839 4.20703 5.09432 6.53221 5.55398 7.41337 7.17932 8.34375 
10.3966 13.2332 15.2723 17.141 21.5859 23.483 19.9031 16.6341 12.1795 
8.11541 7.38391 9.78278 10.4779 9.67825 6.33743 3.08242 4.44028 3.75981 
7.46222 9.06173 9.98646 9.83335 8.86905 5.8919 3.57745 5.17213 4.79133 
2.64326 2.84446 4.36469 6.49992 6.85032 6.80911 7.21412 6.80911 7.18582 
11.5657 15.684 16.0523 16.697 20.8335 19.1426 19.1619 15.2232 11.6396 
9.16362 8.38517 10.8334 11.8265 10.2133 7.7526 2.95548 5.92758 10.2403 
10.8966 10.7516 9.99515 8.20502 4.63994 2.72 4.10332 2.17915 1.86149 
2.2583 3.06571 4.90263 5.74367 6.51497 6.70626 7.14505 8.75243 12.1387 
14.8644 16.427 15.998 18.9063 20.3709 18.8365 16.4599 14.2401 12.0666 
10.8963 11.3001 12.724 10.3042 11.1165 6.61093 6.24136 11.1866 12.7832 
11.9289 9.49651 6.53218 4.10906 0.680324 3.15153 2.50335 1.71818 2.10796 
2.44731 4.64556 5.25576 6.07192 7.23794 8.15918 9.15283 11.5714 14.8474 
16.0967 17.4619 19.4776 22.0528 20.8208 18.7229 16.5469 14.0843 12.5709 
12.3507 10.8901 11.1166 11.4128 10.8075 4.86735 9.06524 11.6708 10.011 
7.71666 5.9151 2.78941 2.46888 0.859099 4.51931 7.00643 6.26179 6.2976 
7.34028 7.78397 8.44616 8.76295 9.98398 9.52648 10.2905 14.2949 15.5953 
16.7438 18.4926 19.9106 19.4753 18.6345 18.3134 14.2908 12.7455 13.4913 
11.4891 13.3444 16.4691 11.5549 7.58995 7.65922 7.74727 6.36914 3.49772 
3.15454 3.2992 5.12882 4.84395 4.63994 6.37267 7.99263 9.36142 9.85584 
9.96931 10.9704 11.291 11.4128 12.0665 13.393 14.4817 14.4817 14.4817 
17.1833 17.561 18.5322 18.8365 17.3192 13.3443 13.2078 13.6704 14.4103 
14.5668 15.495 10.9677 7.70946 7.02156 5.66176 3.74593 1.56004 4.27056 