# vtk DataFile Version 2.0
Saved using mVTK
ASCII
DATASET UNSTRUCTURED_GRID
POINTS 21525 float
70.187890 17.499901 -0.002000
70.187890 18.749901 -0.002000
70.187890 19.999901 -0.002000
70.187890 21.249901 -0.002000
70.187890 22.499901 -0.002000
70.187890 23.749901 -0.002000
70.187890 24.999901 -0.002000
70.187890 26.249901 -0.002000
70.187890 27.499901 -0.002000
70.187890 28.749901 -0.002000
70.187890 29.999901 -0.002000
70.187890 31.249901 -0.002000
70.187890 32.499901 -0.002000
70.187890 33.749901 -0.002000
70.187890 34.999901 -0.002000
70.187890 36.249901 -0.002000
70.187890 37.499901 -0.002000
70.187890 38.749901 -0.002000
70.187890 39.999901 -0.002000
70.187890 41.249901 -0.002000
70.187890 42.499901 -0.002000
70.187890 43.749901 -0.002000
70.187890 44.999901 -0.002000
70.187890 46.249901 -0.002000
70.187890 47.499901 -0.002000
70.187890 48.749901 -0.002000
70.187890 49.999901 -0.002000
70.187890 51.249901 -0.002000
70.187890 52.499901 -0.002000
70.187890 53.749901 -0.002000
70.187890 54.999901 -0.002000
70.187890 56.249901 -0.002000
70.187890 57.499901 -0.002000
70.187890 58.749901 -0.002000
70.187890 59.999901 -0.002000
71.790690 17.499901 -0.002000
71.790690 18.749901 -0.002000
71.790690 19.999901 -0.002000
71.790690 21.249901 -0.002000
71.790690 22.499901 -0.002000
71.790690 23.749901 -0.002000
71.790690 24.999901 -0.002000
71.790690 26.249901 -0.002000
71.790690 27.499901 -0.002000
71.790690 28.749901 -0.002000
71.790690 29.999901 -0.002000
71.790690 31.249901 -0.002000
71.790690 32.499901 -0.002000
71.790690 33.749901 -0.002000
71.790690 34.999901 -0.002000
71.790690 36.249901 -0.002000
71.790690 37.499901 -0.002000
71.790690 38.749901 -0.002000
71.790690 39.999901 -0.002000
71.790690 41.249901 -0.002000
71.790690 42.499901 -0.002000
71.790690 43.749901 -0.002000
71.790690 44.999901 -0.002000
71.790690 46.249901 -0.002000
71.790690 47.499901 -0.002000
71.790690 48.749901 -0.002000
71.790690 49.999901 -0.002000
71.790690 51.249901 -0.002000
71.790690 52.499901 -0.002000
71.790690 53.749901 -0.002000
71.790690 54.999901 -0.002000
71.790690 56.249901 -0.002000
71.790690 57.499901 -0.002000
71.790690 58.749901 -0.002000
71.790690 59.999901 -0.002000
73.393490 17.499901 -0.002000
73.393490 18.749901 -0.002000
73.393490 19.999901 -0.002000
73.393490 21.249901 -0.002000
73.393490 22.499901 -0.002000
73.393490 23.749901 -0.002000
73.393490 24.999901 -0.002000
73.393490 26.249901 -0.002000
73.393490 27.499901 -0.002000
73.393490 28.749901 -0.002000
73.393490 29.999901 -0.002000
73.393490 31.249901 -0.002000
73.393490 32.499901 -0.002000
73.393490 33.749901 -0.002000
73.393490 34.999901 -0.002000
73.393490 36.249901 -0.002000
73.393490 37.499901 -0.002000
73.393490 38.749901 -0.002000
73.393490 39.999901 -0.002000
73.393490 41.249901 -0.002000
73.393490 42.499901 -0.002000
73.393490 43.749901 -0.002000
73.393490 44.999901 -0.002000
73.393490 46.249901 -0.002000
73.393490 47.499901 -0.002000
73.393490 48.749901 -0.002000
73.393490 49.999901 -0.002000
73.393490 51.249901 -0.002000
73.393490 52.499901 -0.002000
73.393490 53.749901 -0.002000
73.393490 54.999901 -0.002000
73.393490 56.249901 -0.002000
73.393490 57.499901 -0.002000
73.393490 58.749901 -0.002000
73.393490 59.999901 -0.002000
74.996290 17.499901 -0.002000
74.996290 18.749901 -0.002000
74.996290 19.999901 -0.002000
74.996290 21.249901 -0.002000
74.996290 22.499901 -0.002000
74.996290 23.749901 -0.002000
74.996290 24.999901 -0.002000
74.996290 26.249901 -0.002000
74.996290 27.499901 -0.002000
74.996290 28.749901 -0.002000
74.996290 29.999901 -0.002000
74.996290 31.249901 -0.002000
74.996290 32.499901 -0.002000
74.996290 33.749901 -0.002000
74.996290 34.999901 -0.002000
74.996290 36.249901 -0.002000
74.996290 37.499901 -0.002000
74.996290 38.749901 -0.002000
74.996290 39.999901 -0.002000
74.996290 41.249901 -0.002000
74.996290 42.499901 -0.002000
74.996290 43.749901 -0.002000
74.996290 44.999901 -0.002000
74.996290 46.249901 -0.002000
74.996290 47.499901 -0.002000
74.996290 48.749901 -0.002000
74.996290 49.999901 -0.002000
74.996290 51.249901 -0.002000
74.996290 52.499901 -0.002000
74.996290 53.749901 -0.002000
74.996290 54.999901 -0.002000
74.996290 56.249901 -0.002000
74.996290 57.499901 -0.002000
74.996290 58.749901 -0.002000
74.996290 59.999901 -0.002000
76.599090 17.499901 -0.002000
76.599090 18.749901 -0.002000
76.599090 19.999901 -0.002000
76.599090 21.249901 -0.002000
76.599090 22.499901 -0.002000
76.599090 23.749901 -0.002000
76.599090 24.999901 -0.002000
76.599090 26.249901 -0.002000
76.599090 27.499901 -0.002000
76.599090 28.749901 -0.002000
76.599090 29.999901 -0.002000
76.599090 31.249901 -0.002000
76.599090 32.499901 -0.002000
76.599090 33.749901 -0.002000
76.599090 34.999901 -0.002000
76.599090 36.249901 -0.002000
76.599090 37.499901 -0.002000
76.599090 38.749901 -0.002000
76.599090 39.999901 -0.002000
76.599090 41.249901 -0.002000
76.599090 42.499901 -0.002000
76.599090 43.749901 -0.002000
76.599090 44.999901 -0.002000
76.599090 46.249901 -0.002000
76.599090 47.499901 -0.002000
76.599090 48.749901 -0.002000
76.599090 49.999901 -0.002000
76.599090 51.249901 -0.002000
76.599090 52.499901 -0.002000
76.599090 53.749901 -0.002000
76.599090 54.999901 -0.002000
76.599090 56.249901 -0.002000
76.599090 57.499901 -0.002000
76.599090 58.749901 -0.002000
76.599090 59.999901 -0.002000
78.201890 17.499901 -0.002000
78.201890 18.749901 -0.002000
78.201890 19.999901 -0.002000
78.201890 21.249901 -0.002000
78.201890 22.499901 -0.002000
78.201890 23.749901 -0.002000
78.201890 24.999901 -0.002000
78.201890 26.249901 -0.002000
78.201890 27.499901 -0.002000
78.201890 28.749901 -0.002000
78.201890 29.999901 -0.002000
78.201890 31.249901 -0.002000
78.201890 32.499901 -0.002000
78.201890 33.749901 -0.002000
78.201890 34.999901 -0.002000
78.201890 36.249901 -0.002000
78.201890 37.499901 -0.002000
78.201890 38.749901 -0.002000
78.201890 39.999901 -0.002000
78.201890 41.249901 -0.002000
78.201890 42.499901 -0.002000
78.201890 43.749901 -0.002000
78.201890 44.999901 -0.002000
78.201890 46.249901 -0.002000
78.201890 47.499901 -0.002000
78.201890 48.749901 -0.002000
78.201890 49.999901 -0.002000
78.201890 51.249901 -0.002000
78.201890 52.499901 -0.002000
78.201890 53.749901 -0.002000
78.201890 54.999901 -0.002000
78.201890 56.249901 -0.002000
78.201890 57.499901 -0.002000
78.201890 58.749901 -0.002000
78.201890 59.999901 -0.002000
79.804690 17.499901 -0.002000
79.804690 18.749901 -0.002000
79.804690 19.999901 -0.002000
79.804690 21.249901 -0.002000
79.804690 22.499901 -0.002000
79.804690 23.749901 -0.002000
79.804690 24.999901 -0.002000
79.804690 26.249901 -0.002000
79.804690 27.499901 -0.002000
79.804690 28.749901 -0.002000
79.804690 29.999901 -0.002000
79.804690 31.249901 -0.002000
79.804690 32.499901 -0.002000
79.804690 33.749901 -0.002000
79.804690 34.999901 -0.002000
79.804690 36.249901 -0.002000
79.804690 37.499901 -0.002000
79.804690 38.749901 -0.002000
79.804690 39.999901 -0.002000
79.804690 41.249901 -0.002000
79.804690 42.499901 -0.002000
79.804690 43.749901 -0.002000
79.804690 44.999901 -0.002000
79.804690 46.249901 -0.002000
79.804690 47.499901 -0.002000
79.804690 48.749901 -0.002000
79.804690 49.999901 -0.002000
79.804690 51.249901 -0.002000
79.804690 52.499901 -0.002000
79.804690 53.749901 -0.002000
79.804690 54.999901 -0.002000
79.804690 56.249901 -0.002000
79.804690 57.499901 -0.002000
79.804690 58.749901 -0.002000
79.804690 59.999901 -0.002000
81.407490 17.499901 -0.002000
81.407490 18.749901 -0.002000
81.407490 19.999901 -0.002000
81.407490 21.249901 -0.002000
81.407490 22.499901 -0.002000
81.407490 23.749901 -0.002000
81.407490 24.999901 -0.002000
81.407490 26.249901 -0.002000
81.407490 27.499901 -0.002000
81.407490 28.749901 -0.002000
81.407490 29.999901 -0.002000
81.407490 31.249901 -0.002000
81.407490 32.499901 -0.002000
81.407490 33.749901 -0.002000
81.407490 34.999901 -0.002000
81.407490 36.249901 -0.002000
81.407490 37.499901 -0.002000
81.407490 38.749901 -0.002000
81.407490 39.999901 -0.002000
81.407490 41.249901 -0.002000
81.407490 42.499901 -0.002000
81.407490 43.749901 -0.002000
81.407490 44.999901 -0.002000
81.407490 46.249901 -0.002000
81.407490 47.499901 -0.002000
81.407490 48.749901 -0.002000
81.407490 49.999901 -0.002000
81.407490 51.249901 -0.002000
81.407490 52.499901 -0.002000
81.407490 53.749901 -0.002000
81.407490 54.999901 -0.002000
81.407490 56.249901 -0.002000
81.407490 57.499901 -0.002000
81.407490 58.749901 -0.002000
81.407490 59.999901 -0.002000
83.010290 17.499901 -0.002000
83.010290 18.749901 -0.002000
83.010290 19.999901 -0.002000
83.010290 21.249901 -0.002000
83.010290 22.499901 -0.002000
83.010290 23.749901 -0.002000
83.010290 24.999901 -0.002000
83.010290 26.249901 -0.002000
83.010290 27.499901 -0.002000
83.010290 28.749901 -0.002000
83.010290 29.999901 -0.002000
83.010290 31.249901 -0.002000
83.010290 32.499901 -0.002000
83.010290 33.749901 -0.002000
83.010290 34.999901 -0.002000
83.010290 36.249901 -0.002000
83.010290 37.499901 -0.002000
83.010290 38.749901 -0.002000
83.010290 39.999901 -0.002000
83.010290 41.249901 -0.002000
83.010290 42.499901 -0.002000
83.010290 43.749901 -0.002000
83.010290 44.999901 -0.002000
83.010290 46.249901 -0.002000
83.010290 47.499901 -0.002000
83.010290 48.749901 -0.002000
83.010290 49.999901 -0.002000
83.010290 51.249901 -0.002000
83.010290 52.499901 -0.002000
83.010290 53.749901 -0.002000
83.010290 54.999901 -0.002000
83.010290 56.249901 -0.002000
83.010290 57.499901 -0.002000
83.010290 58.749901 -0.002000
83.010290 59.999901 -0.002000
84.613090 17.499901 -0.002000
84.613090 18.749901 -0.002000
84.613090 19.999901 -0.002000
84.613090 21.249901 -0.002000
84.613090 22.499901 -0.002000
84.613090 23.749901 -0.002000
84.613090 24.999901 -0.002000
84.613090 26.249901 -0.002000
84.613090 27.499901 -0.002000
84.613090 28.749901 -0.002000
84.613090 29.999901 -0.002000
84.613090 31.249901 -0.002000
84.613090 32.499901 -0.002000
84.613090 33.749901 -0.002000
84.613090 34.999901 -0.002000
[...]
POINT_DATA 21525
VECTORS vectors float
0.568513 0.627830 -0.001017
0.568513 0.978335 -0.001017
0.568513 0.978335 -0.001017
0.879092 0.978335 -0.001017
1.189672 0.978335 -0.001017
1.500250 0.978335 -0.001017
1.500250 0.627830 -0.001017
2.121408 0.627830 -0.001017
3.053145 0.627830 -0.001017
4.606041 0.978335 -0.001017
4.606041 -0.073182 -0.001017
4.916620 -1.124700 -0.001017
4.916620 -0.423688 -0.001017
5.227200 -0.073182 -0.001017
5.227200 0.277324 -0.001017
5.227200 -0.073182 -0.001017
5.537778 -0.423688 -0.001017
6.158936 -0.073182 -0.001017
5.537778 -1.825711 -0.001017
3.363725 -0.774194 -0.001017
1.500250 -0.423688 -0.001017
0.879092 -1.124700 -0.001017
0.257935 -0.774194 -0.001017
-0.673803 -1.124700 -0.001017
-2.226698 -0.423688 -0.001017
-3.158436 -0.073182 -0.001017
-3.779593 0.627830 -0.001017
-4.400752 1.328841 -0.001017
-4.711331 2.029853 -0.001017
-3.779593 2.029853 -0.001017
-2.537277 0.978335 -0.001017
-1.294961 -0.073182 -0.001017
-0.984383 -0.423688 -0.001017
-1.294961 -1.475205 -0.001017
-2.537277 -1.475205 -0.001017
0.568513 0.627830 -0.001017
0.568513 0.978335 -0.001017
0.879092 0.978335 -0.001017
0.879092 1.328841 -0.001017
1.189672 1.328841 -0.001017
1.500250 0.978335 -0.001017
1.189672 0.277324 -0.001017
2.121408 0.978335 -0.001017
3.674304 1.679347 -0.001017
3.363725 0.277324 -0.001017
3.363725 -1.124700 -0.001017
4.295462 -0.774194 -0.001017
4.916620 -0.423688 -0.001017
5.227200 -0.423688 -0.001017
5.537778 -0.073182 -0.001017
4.916620 -0.073182 -0.001017
4.916620 0.277324 -0.001017
4.606041 0.277324 -0.001017
4.606041 -1.475205 -0.001017
4.295462 -0.774194 -0.001017
0.568513 -0.073182 -0.001017
1.500250 -1.124700 -0.001017
0.879092 -0.774194 -0.001017
0.257935 -0.774194 -0.001017
-1.605540 -0.423688 -0.001017
-2.537277 0.277324 -0.001017
-2.847857 1.328841 -0.001017
-2.847857 1.679347 -0.001017
-3.469015 2.380359 -0.001017
-2.847857 2.380359 -0.001017
-1.294961 0.978335 -0.001017
-0.673803 0.627830 -0.001017
-2.226698 0.978335 -0.001017
-2.847857 0.627830 -0.001017
-2.847857 -0.774194 -0.001017
0.568513 0.627830 -0.001017
0.568513 0.978335 -0.001017
0.879092 1.328841 -0.001017
0.879092 1.679347 -0.001017
0.879092 1.679347 -0.001017
0.568513 0.627830 -0.001017
0.879092 1.328841 -0.001017
3.053145 3.081370 -0.001017
3.053145 1.328841 -0.001017
2.121408 -0.774194 -0.001017
3.053145 -0.774194 -0.001017
4.295462 -0.423688 -0.001017
4.606041 0.277324 -0.001017
4.606041 -0.073182 -0.001017
4.606041 -0.073182 -0.001017
4.295462 -0.423688 -0.001017
4.606041 -0.423688 -0.001017
4.606041 -0.774194 -0.001017
3.674304 -0.774194 -0.001017
3.363725 -1.475205 -0.001017
0.568513 -1.124700 -0.001017
0.879092 -0.774194 -0.001017
1.189672 -2.526723 -0.001017
-0.673803 -1.825711 -0.001017
-1.605540 -0.774194 -0.001017
-2.226698 0.277324 -0.001017
-2.537277 1.328841 -0.001017
-2.537277 1.679347 -0.001017
-2.226698 2.380359 -0.001017
-1.294961 1.679347 -0.001017
-0.984383 1.679347 -0.001017
-0.984383 1.679347 -0.001017
-3.158436 3.431875 -0.001017
-2.847857 1.328841 -0.001017
-4.400752 1.679347 -0.001017
0.879092 0.627830 -0.001017
0.879092 1.328841 -0.001017
0.568513 1.328841 -0.001017
0.879092 1.679347 -0.001017
0.568513 0.627830 -0.001017
0.257935 0.277324 -0.001017
2.121408 3.081370 -0.001017
2.431988 2.380359 -0.001017
0.879092 -0.774194 -0.001017
2.431988 -1.124700 -0.001017
3.363725 -0.073182 -0.001017
3.363725 0.277324 -0.001017
3.053145 0.627830 -0.001017
3.053145 -0.073182 -0.001017
3.053145 -1.124700 -0.001017
3.053145 -0.423688 -0.001017
2.431988 0.277324 -0.001017
2.742567 -0.774194 -0.001017
3.053145 -0.423688 -0.001017
2.121408 -0.774194 -0.001017
1.189672 -1.475205 -0.001017
0.879092 -0.774194 -0.001017
1.189672 -2.526723 -0.001017
1.189672 -2.176217 -0.001017
0.568513 -1.825711 -0.001017
-0.984383 0.277324 -0.001017
-0.984383 0.978335 -0.001017
-0.984383 1.679347 -0.001017
0.257935 1.679347 -0.001017
-0.673803 2.380359 -0.001017
-0.673803 2.029853 -0.001017
-0.363224 2.029853 -0.001017
-1.605540 2.380359 -0.001017
-2.226698 0.277324 -0.001017
-4.400752 0.627830 -0.001017
0.568513 0.627830 -0.001017
0.568513 1.328841 -0.001017
0.257935 1.679347 -0.001017
0.568513 1.679347 -0.001017
0.257935 0.277324 -0.001017
0.568513 2.029853 -0.001017
1.500250 3.431875 -0.001017
0.879092 0.277324 -0.001017
0.568513 -0.423688 -0.001017
2.742567 0.978335 -0.001017
3.053145 0.277324 -0.001017
2.121408 -0.073182 -0.001017
1.189672 -0.423688 -0.001017
1.189672 -0.423688 -0.001017
1.189672 -0.073182 -0.001017
1.500250 -0.774194 -0.001017
1.189672 -0.774194 -0.001017
1.500250 0.277324 -0.001017
2.121408 -0.073182 -0.001017
-0.363224 -0.774194 -0.001017
-0.363224 -1.124700 -0.001017
0.568513 -0.774194 -0.001017
0.257935 -1.475205 -0.001017
0.568513 -3.227735 -0.001017
0.257935 -2.526723 -0.001017
0.257935 -1.124700 -0.001017
-0.673803 0.978335 -0.001017
-0.673803 2.029853 -0.001017
-1.294961 3.782381 -0.001017
-0.984383 4.132887 -0.001017
-0.363224 2.380359 -0.001017
-0.984383 3.081370 -0.001017
-2.537277 5.534910 -0.001017
-3.469015 3.081370 -0.001017
-3.779593 0.277324 -0.001017
0.568513 0.627830 -0.001017
0.568513 0.627830 -0.001017
0.257935 1.679347 -0.001017
0.568513 1.679347 -0.001017
0.257935 -0.073182 -0.001017
0.568513 2.380359 -0.001017
0.257935 2.380359 -0.001017
0.257935 -0.423688 -0.001017
2.121408 0.277324 -0.001017
2.431988 0.978335 -0.001017
0.568513 -0.073182 -0.001017
0.568513 -0.423688 -0.001017
0.568513 -0.774194 -0.001017
0.568513 -0.774194 -0.001017
0.257935 -0.423688 -0.001017
-0.363224 -0.073182 -0.001017
0.568513 0.627830 -0.001017
-0.363224 0.277324 -0.001017
0.257935 -0.423688 -0.001017
-0.363224 -0.423688 -0.001017
-0.363224 -0.073182 -0.001017
0.568513 -0.073182 -0.001017
0.879092 -0.423688 -0.001017
0.568513 -0.774194 -0.001017
0.879092 -0.073182 -0.001017
0.879092 0.627830 -0.001017
-0.984383 3.431875 -0.001017
-2.537277 5.534910 -0.001017
-2.226698 5.534910 -0.001017
-0.673803 4.132887 -0.001017
0.257935 2.029853 -0.001017
-1.605540 5.534910 -0.001017
-1.605540 3.782381 -0.001017
-3.158436 1.328841 -0.001017
-2.847857 -0.423688 -0.001017
0.568513 0.277324 -0.001017
0.257935 0.627830 -0.001017
0.568513 2.029853 -0.001017
0.257935 1.328841 -0.001017
-0.363224 0.277324 -0.001017
0.879092 2.029853 -0.001017
-0.363224 1.679347 -0.001017
0.568513 0.627830 -0.001017
2.431988 0.978335 -0.001017
0.568513 -0.423688 -0.001017
0.568513 -0.423688 -0.001017
-0.673803 0.277324 -0.001017
-0.673803 -0.423688 -0.001017
-1.294961 -0.423688 -0.001017
-1.605540 -0.423688 -0.001017
-2.226698 -0.073182 -0.001017
-2.537277 -0.423688 -0.001017
-1.294961 0.277324 -0.001017
-0.363224 0.978335 -0.001017
0.257935 0.978335 -0.001017
0.879092 0.277324 -0.001017
-0.363224 0.978335 -0.001017
0.257935 0.978335 -0.001017
0.257935 0.277324 -0.001017
0.257935 2.380359 -0.001017
-0.363224 3.782381 -0.001017
-1.294961 5.534910 -0.001017
-1.294961 6.586428 -0.001017
-1.605540 5.184404 -0.001017
0.257935 1.679347 -0.001017
-0.363224 2.029853 -0.001017
-1.294961 3.081370 -0.001017
-2.847857 4.483393 -0.001017
-3.158436 0.978335 -0.001017
-1.605540 -1.124700 -0.001017
0.879092 -0.423688 -0.001017
0.257935 0.978335 -0.001017
0.879092 2.029853 -0.001017
-0.363224 0.277324 -0.001017
-0.363224 0.978335 -0.001017
0.879092 1.679347 -0.001017
0.568513 0.277324 -0.001017
2.121408 1.328841 -0.001017
0.879092 -0.774194 -0.001017
0.879092 -0.774194 -0.001017
0.568513 -0.774194 -0.001017
-0.363224 -1.825711 -0.001017
-1.605540 -0.423688 -0.001017
-2.537277 -0.774194 -0.001017
-3.158436 -0.774194 -0.001017
-3.158436 -0.423688 -0.001017
-1.605540 1.328841 -0.001017
0.257935 1.328841 -0.001017
2.121408 0.627830 -0.001017
2.742567 1.328841 -0.001017
3.363725 2.380359 -0.001017
3.363725 1.679347 -0.001017
1.500250 1.679347 -0.001017
1.500250 1.328841 -0.001017
0.568513 2.730865 -0.001017
0.879092 3.431875 -0.001017
1.500250 4.833899 -0.001017
0.568513 6.936934 -0.001017
-0.363224 3.081370 -0.001017
-0.984383 2.029853 -0.001017
-1.294961 3.081370 -0.001017
-1.605540 0.978335 -0.001017
-2.537277 0.978335 -0.001017
-0.984383 -1.475205 -0.001017
-0.673803 -1.475205 -0.001017
0.879092 -0.423688 -0.001017
1.189672 0.978335 -0.001017
0.879092 1.679347 -0.001017
-0.363224 -0.073182 -0.001017
1.189672 1.328841 -0.001017
2.121408 2.029853 -0.001017
2.121408 1.679347 -0.001017
2.742567 0.277324 -0.001017
0.879092 -1.475205 -0.001017
2.121408 -1.825711 -0.001017
0.257935 -1.124700 -0.001017
-0.673803 -1.825711 -0.001017
-0.984383 -1.475205 -0.001017
-3.158436 -0.423688 -0.001017
-2.847857 -0.423688 -0.001017
-2.226698 0.627830 -0.001017
-0.363224 1.328841 -0.001017
0.879092 0.978335 -0.001017
1.500250 1.679347 -0.001017
2.742567 2.029853 -0.001017
2.431988 1.328841 -0.001017
1.500250 0.978335 -0.001017
1.189672 1.679347 -0.001017
1.500250 1.328841 -0.001017
2.121408 2.029853 -0.001017
2.431988 3.431875 -0.001017
2.742567 4.132887 -0.001017
0.568513 5.534910 -0.001017
-0.363224 2.730865 -0.001017
-3.469015 4.483393 -0.001017
-2.537277 1.328841 -0.001017
-2.847857 0.277324 -0.001017
-1.605540 -1.124700 -0.001017
-1.294961 -1.475205 -0.001017
-2.226698 -0.423688 -0.001017
0.879092 0.277324 -0.001017
2.121408 0.978335 -0.001017
0.568513 0.277324 -0.001017
0.568513 -0.073182 -0.001017
1.189672 2.730865 -0.001017
2.121408 1.328841 -0.001017
3.674304 0.277324 -0.001017
2.121408 -0.423688 -0.001017
2.121408 -2.176217 -0.001017
0.879092 -2.176217 -0.001017
2.121408 -3.578240 -0.001017
-0.363224 -2.526723 -0.001017
-0.673803 -1.825711 -0.001017
-1.294961 -1.124700 -0.001017
0.257935 0.627830 -0.001017
1.189672 0.277324 -0.001017
2.121408 0.978335 -0.001017
2.431988 2.730865 -0.001017
3.674304 2.380359 -0.001017
3.674304 2.380359 -0.001017
2.121408 1.328841 -0.001017
0.879092 0.277324 -0.001017
0.257935 0.277324 -0.001017
0.568513 0.627830 -0.001017
1.189672 1.328841 -0.001017
2.742567 2.730865 -0.001017
2.431988 3.782381 -0.001017
1.189672 5.184404 -0.001017
-0.984383 4.833899 -0.001017
-4.400752 3.782381 -0.001017
-3.158436 -0.423688 -0.001017
-3.158436 -0.423688 -0.001017
-2.226698 -1.124700 -0.001017
-2.537277 -0.774194 -0.001017
-3.158436 -0.423688 -0.001017
0.879092 1.328841 -0.001017
1.500250 0.627830 -0.001017
-0.363224 -0.073182 -0.001017
1.189672 0.627830 -0.001017
1.189672 1.679347 -0.001017
0.568513 3.081370 -0.001017
3.053145 0.978335 -0.001017
2.121408 -2.176217 -0.001017
3.363725 -1.825711 -0.001017
3.053145 -1.825711 -0.001017
2.121408 -3.578240 -0.001017
1.189672 -4.279252 -0.001017
2.121408 -3.227735 -0.001017
3.363725 -2.176217 -0.001017
4.916620 -2.526723 -0.001017
6.469515 0.277324 -0.001017
8.332989 3.081370 -0.001017
5.537778 3.081370 -0.001017
4.606041 2.029853 -0.001017
3.053145 -0.073182 -0.001017
0.568513 -1.475205 -0.001017
-0.673803 -1.475205 -0.001017
-2.537277 -0.774194 -0.001017
-0.363224 -0.073182 -0.001017
-0.363224 0.277324 -0.001017
1.500250 1.679347 -0.001017
2.742567 2.730865 -0.001017
1.500250 4.132887 -0.001017
-1.605540 4.483393 -0.001017
-3.779593 1.328841 -0.001017
-3.779593 -0.774194 -0.001017
-3.469015 -0.774194 -0.001017
-3.469015 -0.423688 -0.001017
-4.400752 0.627830 -0.001017
-4.711331 0.627830 -0.001017
0.879092 1.328841 -0.001017
0.879092 -0.073182 -0.001017
0.257935 -0.073182 -0.001017
0.257935 1.328841 -0.001017
0.568513 0.978335 -0.001017
2.742567 2.029853 -0.001017
-1.294961 -0.423688 -0.001017
-0.363224 -1.475205 -0.001017
3.053145 -0.423688 -0.001017
3.053145 -1.825711 -0.001017
4.606041 -1.825711 -0.001017
6.469515 -1.124700 -0.001017
7.401253 -1.475205 -0.001017
8.332989 -0.774194 -0.001017
6.780094 -0.423688 -0.001017
8.332989 -1.825711 -0.001017
10.507044 0.277324 -0.001017
8.643568 2.380359 -0.001017
7.090673 0.277324 -0.001017
4.916620 -2.526723 -0.001017
1.500250 -4.279252 -0.001017
-2.226698 -3.578240 -0.001017
-3.469015 -1.825711 -0.001017
-1.605540 -0.423688 -0.001017
0.257935 0.978335 -0.001017
1.500250 1.679347 -0.001017
3.363725 2.730865 -0.001017
2.742567 2.730865 -0.001017
-2.537277 2.730865 -0.001017
-5.021910 -0.073182 -0.001017
-4.711331 -0.423688 -0.001017
-4.400752 -0.423688 -0.001017
-5.643068 0.978335 -0.001017
-5.021910 0.627830 -0.001017
-3.469015 -1.475205 -0.001017
0.568513 1.328841 -0.001017
0.568513 -0.423688 -0.001017
0.879092 -0.774194 -0.001017
-0.363224 0.627830 -0.001017
0.257935 3.782381 -0.001017
1.500250 1.328841 -0.001017
-0.673803 -3.227735 -0.001017
1.189672 2.380359 -0.001017
0.879092 1.328841 -0.001017
2.121408 0.627830 -0.001017
5.537778 3.431875 -0.001017
6.780094 2.029853 -0.001017
7.090673 3.081370 -0.001017
8.332989 3.782381 -0.001017
8.332989 4.132887 -0.001017
8.022411 0.978335 -0.001017
7.090673 2.029853 -0.001017
7.090673 1.328841 -0.001017
7.401253 0.627830 -0.001017
5.537778 -1.825711 -0.001017
3.363725 -7.433804 -0.001017
0.568513 -7.433804 -0.001017
-2.847857 -5.681275 -0.001017
-3.469015 -3.227735 -0.001017
-0.673803 -1.475205 -0.001017
0.879092 0.978335 -0.001017
2.431988 1.679347 -0.001017
-0.673803 2.029853 -0.001017
-3.779593 -0.073182 -0.001017
-5.332489 -0.774194 -0.001017
-5.643068 -0.073182 -0.001017
-6.574805 0.627830 -0.001017
-7.195963 1.328841 -0.001017
-5.021910 -0.423688 -0.001017
-3.469015 -1.825711 -0.001017
-0.363224 0.627830 -0.001017
-0.984383 -0.073182 -0.001017
0.257935 -0.774194 -0.001017
0.257935 0.277324 -0.001017
0.257935 1.328841 -0.001017
-2.847857 0.277324 -0.001017
-2.537277 -1.825711 -0.001017
-0.363224 0.978335 -0.001017
-2.226698 -1.124700 -0.001017
1.189672 -0.073182 -0.001017
0.568513 1.328841 -0.001017
2.742567 0.978335 -0.001017
4.295462 2.380359 -0.001017
6.780094 2.730865 -0.001017
10.507044 4.483393 -0.001017
8.954147 4.132887 -0.001017
9.575306 0.627830 -0.001017
9.575306 -1.825711 -0.001017
7.401253 -3.227735 -0.001017
5.537778 -4.980263 -0.001017
2.742567 -5.681275 -0.001017
2.431988 -6.732792 -0.001017
-0.984383 -8.134815 -0.001017
-3.779593 -4.629758 -0.001017
-1.294961 -2.176217 -0.001017
0.879092 -0.423688 -0.001017
2.121408 0.627830 -0.001017
0.257935 -1.124700 -0.001017
-5.021910 -1.825711 -0.001017
-6.264226 0.277324 -0.001017
-7.195963 0.627830 -0.001017
-8.748858 2.029853 -0.001017
-6.885385 0.277324 -0.001017
-4.400752 -1.825711 -0.001017
-3.158436 -2.526723 -0.001017
-0.673803 -0.423688 -0.001017
-0.673803 -0.423688 -0.001017
-0.984383 -0.423688 -0.001017
-0.363224 0.978335 -0.001017
-1.605540 0.277324 -0.001017
-2.537277 -0.774194 -0.001017
-2.226698 -0.423688 -0.001017
-2.226698 -0.073182 -0.001017
-1.605540 -0.073182 -0.001017
-0.673803 -0.423688 -0.001017
1.189672 -1.825711 -0.001017
4.916620 -1.124700 -0.001017
7.090673 0.978335 -0.001017
10.817623 3.782381 -0.001017
12.059938 6.586428 -0.001017
11.128201 6.235922 -0.001017
9.575306 6.235922 -0.001017
9.575306 1.328841 -0.001017
5.537778 -3.578240 -0.001017
3.053145 -6.031781 -0.001017
2.742567 -7.433804 -0.001017
1.500250 -7.083298 -0.001017
0.568513 -8.134815 -0.001017
-3.158436 -8.134815 -0.001017
-0.673803 -3.928746 -0.001017
1.189672 -1.825711 -0.001017
0.257935 -0.774194 -0.001017
-0.984383 -1.825711 -0.001017
-5.021910 -1.825711 -0.001017
-6.885385 -0.073182 -0.001017
-9.680595 2.380359 -0.001017
-8.127701 0.277324 -0.001017
-6.264226 -1.124700 -0.001017
-3.469015 -2.526723 -0.001017
-3.158436 -2.176217 -0.001017
-0.363224 -1.124700 -0.001017
0.257935 -0.774194 -0.001017
0.257935 -0.423688 -0.001017
-0.363224 0.277324 -0.001017
-1.294961 -1.475205 -0.001017
-2.226698 -1.124700 -0.001017
-2.226698 -0.423688 -0.001017
-2.537277 -1.124700 -0.001017
-1.605540 -1.825711 -0.001017
-0.363224 -1.825711 -0.001017
3.363725 -1.124700 -0.001017
7.090673 1.328841 -0.001017
11.128201 5.184404 -0.001017
12.681097 10.091486 -0.001017
12.059938 13.947050 -0.001017
15.476309 9.039968 -0.001017
8.954147 7.287439 -0.001017
8.643568 4.833899 -0.001017
6.780094 4.483393 -0.001017
3.363725 6.586428 -0.001017
2.431988 4.833899 -0.001017
3.053145 -0.073182 -0.001017
3.053145 -8.134815 -0.001017
-0.673803 -11.639874 -0.001017
0.568513 -4.980263 -0.001017
2.121408 -1.124700 -0.001017
0.568513 -1.825711 -0.001017
-1.294961 -2.176217 -0.001017
-5.643068 -0.774194 -0.001017
-8.748858 0.978335 -0.001017
-9.370017 1.328841 -0.001017
-7.195963 -0.774194 -0.001017
-5.643068 -1.124700 -0.001017
-3.469015 -2.176217 -0.001017
-3.469015 -1.475205 -0.001017
-0.363224 -1.124700 -0.001017
0.257935 -0.423688 -0.001017
0.568513 -1.475205 -0.001017
-1.294961 -1.475205 -0.001017
-1.605540 -2.526723 -0.001017
-2.226698 -1.825711 -0.001017
-1.605540 -0.423688 -0.001017
0.568513 -1.825711 -0.001017
1.189672 -0.073182 -0.001017
4.295462 1.679347 -0.001017
5.227200 2.380359 -0.001017
7.090673 3.782381 -0.001017
9.264727 6.235922 -0.001017
12.370518 10.091486 -0.001017
12.681097 10.441992 -0.001017
9.575306 10.441992 -0.001017
6.469515 8.689463 -0.001017
4.606041 1.679347 -0.001017
2.742567 4.483393 -0.001017
3.363725 7.988451 -0.001017
3.363725 7.988451 -0.001017
3.053145 3.782381 -0.001017
1.500250 -4.629758 -0.001017
-0.363224 -10.938862 -0.001017
-0.363224 -7.433804 -0.001017
0.568513 -1.475205 -0.001017
-0.363224 -2.176217 -0.001017
-3.158436 -2.176217 -0.001017
-6.885385 -0.774194 -0.001017
-10.301754 1.679347 -0.001017
-8.438280 0.277324 -0.001017
-6.574805 -1.475205 -0.001017
-6.264226 -0.423688 -0.001017
-4.400752 -1.124700 -0.001017
-3.779593 -0.073182 -0.001017
0.257935 -1.124700 -0.001017
-0.363224 -0.774194 -0.001017
-0.673803 -1.825711 -0.001017
-0.984383 -1.825711 -0.001017
-1.294961 -2.176217 -0.001017
-0.673803 -1.825711 -0.001017
0.568513 -1.825711 -0.001017
3.674304 -0.073182 -0.001017
5.537778 2.380359 -0.001017
6.158936 2.380359 -0.001017
5.537778 1.679347 -0.001017
5.227200 3.782381 -0.001017
6.158936 6.586428 -0.001017
12.681097 6.936934 -0.001017
15.165730 6.235922 -0.001017
17.960941 10.792498 -0.001017
18.271519 16.050085 -0.001017
13.923412 15.699579 -0.001017
4.916620 9.039968 -0.001017
-0.363224 4.483393 -0.001017
4.295462 7.637945 -0.001017
2.742567 6.586428 -0.001017
-0.363224 -0.774194 -0.001017
2.431988 -5.681275 -0.001017
0.257935 -6.382287 -0.001017
0.257935 -1.825711 -0.001017
-0.363224 -2.176217 -0.001017
-3.779593 -1.825711 -0.001017
-7.195963 -0.423688 -0.001017
-10.301754 1.679347 -0.001017
-8.127701 -0.073182 -0.001017
-6.264226 -1.124700 -0.001017
-5.332489 -0.073182 -0.001017
-3.779593 -0.423688 -0.001017
-3.779593 0.978335 -0.001017
-0.363224 -1.475205 -0.001017
-0.984383 -1.475205 -0.001017
-1.294961 -2.176217 -0.001017
-0.673803 -1.825711 -0.001017
-0.673803 -1.825711 -0.001017
2.431988 -0.423688 -0.001017
3.674304 -0.774194 -0.001017
5.227200 -0.423688 -0.001017
3.674304 -0.073182 -0.001017
2.742567 0.978335 -0.001017
2.742567 2.730865 -0.001017
4.295462 2.730865 -0.001017
6.780094 4.483393 -0.001017
9.575306 8.338957 -0.001017
13.923412 10.792498 -0.001017
17.029203 12.895533 -0.001017
14.855150 13.246038 -0.001017
10.507044 12.895533 -0.001017
4.916620 11.143003 -0.001017
1.500250 5.534910 -0.001017
0.879092 5.534910 -0.001017
2.431988 8.338957 -0.001017
1.500250 3.081370 -0.001017
3.674304 -3.578240 -0.001017
0.257935 -6.732792 -0.001017
-1.605540 -1.825711 -0.001017
-0.673803 -3.227735 -0.001017
-3.469015 -2.176217 -0.001017
-8.438280 -0.073182 -0.001017
-9.680595 0.627830 -0.001017
-8.438280 0.277324 -0.001017
-6.574805 -0.423688 -0.001017
-5.021910 -0.073182 -0.001017
-3.779593 -0.423688 -0.001017
-3.158436 0.627830 -0.001017
-0.984383 -1.825711 -0.001017
-0.984383 -2.176217 -0.001017
-0.673803 -1.825711 -0.001017
0.879092 -0.423688 -0.001017
2.742567 -1.124700 -0.001017
5.227200 -0.073182 -0.001017
4.916620 0.277324 -0.001017
3.053145 -0.073182 -0.001017
1.500250 0.978335 -0.001017
0.568513 0.627830 -0.001017
-0.363224 1.679347 -0.001017
1.500250 3.431875 -0.001017
3.674304 4.483393 -0.001017
5.227200 5.184404 -0.001017
6.158936 7.637945 -0.001017
9.575306 10.792498 -0.001017
6.469515 13.596544 -0.001017
3.053145 12.545027 -0.001017
0.257935 7.637945 -0.001017
-0.363224 4.132887 -0.001017
-0.673803 7.287439 -0.001017
2.431988 6.586428 -0.001017
1.500250 3.782381 -0.001017
3.674304 -0.774194 -0.001017
-0.363224 -6.031781 -0.001017