# vtk DataFile Version 3.0
Autogenerated from april.txt by weatherdisplay
ASCII
DATASET STRUCTURED_GRID
DIMENSIONS 10 12 30
POINTS 3600 float
-89.3 37 0 
-89.2111 37 0 
-89.1222 37 0 
-89.0333 37 0 
-88.9444 37 0 
-88.8556 37 0 
-88.7667 37 0 
-88.6778 37 0 
-88.5889 37 0 
-88.5 37 0 
-89.5 37.5 0 
-89.3408 37.5 0 
-89.1816 37.5 0 
-89.0223 37.5 0 
-88.8631 37.5 0 
-88.7039 37.5 0 
-88.5447 37.5 0 
-88.3854 37.5 0 
-88.2262 37.5 0 
-88.067 37.5 0 
-90.05 38 0 
-89.825 38 0 
-89.6 38 0 
-89.375 38 0 
-89.15 38 0 
-88.925 38 0 
-88.7 38 0 
-88.475 38 0 
-88.25 38 0 
-88.025 38 0 
-90.267 38.5 0 
-89.9799 38.5 0 
-89.6928 38.5 0 
-89.4057 38.5 0 
-89.1186 38.5 0 
-88.8314 38.5 0 
-88.5443 38.5 0 
-88.2572 38.5 0 
-87.9701 38.5 0 
-87.683 38.5 0 
-90.683 39 0 
-90.3386 39 0 
-89.9941 39 0 
-89.6497 39 0 
-89.3052 39 0 
-88.9608 39 0 
-88.6163 39 0 
-88.2719 39 0 
-87.9274 39 0 
-87.583 39 0 
-91.067 39.5 0 
-90.6743 39.5 0 
-90.2817 39.5 0 
-89.889 39.5 0 
-89.4963 39.5 0 
-89.1037 39.5 0 
-88.711 39.5 0 
-88.3183 39.5 0 
-87.9257 39.5 0 
-87.533 39.5 0 
-91.467 40 0 
-91.0299 40 0 
-90.5928 40 0 
-90.1557 40 0 
-89.7186 40 0 
-89.2814 40 0 
-88.8443 40 0 
-88.4072 40 0 
-87.9701 40 0 
-87.533 40 0 
-91.367 40.5 0 
-90.9401 40.5 0 
-90.5132 40.5 0 
-90.0863 40.5 0 
-89.6594 40.5 0 
-89.2326 40.5 0 
-88.8057 40.5 0 
-88.3788 40.5 0 
-87.9519 40.5 0 
-87.525 40.5 0 
-90.933 41 0 
-90.5543 41 0 
-90.1757 41 0 
-89.797 41 0 
-89.4183 41 0 
-89.0397 41 0 
-88.661 41 0 
-88.2823 41 0 
-87.9037 41 0 
-87.525 41 0 
-91.125 41.5 0 
-90.725 41.5 0 
-90.325 41.5 0 
-89.925 41.5 0 
-89.525 41.5 0 
-89.125 41.5 0 
-88.725 41.5 0 
-88.325 41.5 0 
-87.925 41.5 0 
-87.525 41.5 0 
-90.142 42 0 
-89.8651 42 0 
-89.5882 42 0 
-89.3113 42 0 
-89.0344 42 0 
-88.7576 42 0 
-88.4807 42 0 
-88.2038 42 0 
-87.9269 42 0 
-87.65 42 0 
-90.65 42.508 0 
-90.3333 42.508 0 
-90.0167 42.508 0 
-89.7 42.508 0 
-89.3833 42.508 0 
-89.0667 42.508 0 
-88.75 42.508 0 
-88.4333 42.508 0 
-88.1167 42.508 0 
-87.8 42.508 0 
-89.3 37 0 
-89.2111 37 0 
-89.1222 37 0 
-89.0333 37 0 
-88.9444 37 0 
-88.8556 37 0 
-88.7667 37 0 
-88.6778 37 0 
-88.5889 37 0 
-88.5 37 0 
-89.5 37.5 0 
-89.3408 37.5 0 
-89.1816 37.5 0 
-89.0223 37.5 0 
-88.8631 37.5 0 
-88.7039 37.5 0 
-88.5447 37.5 0 
-88.3854 37.5 0 
-88.2262 37.5 0 
-88.067 37.5 0 
-90.05 38 0 
-89.825 38 0 
-89.6 38 0 
-89.375 38 0 
-89.15 38 0 
-88.925 38 0 
-88.7 38 0 
-88.475 38 0 
-88.25 38 0 
-88.025 38 0 
-90.267 38.5 0 
-89.9799 38.5 0 
-89.6928 38.5 0 
-89.4057 38.5 0 
-89.1186 38.5 0 
-88.8314 38.5 0 
-88.5443 38.5 0 
-88.2572 38.5 0 
-87.9701 38.5 0 
-87.683 38.5 0 
-90.683 39 0 
-90.3386 39 0 
-89.9941 39 0 
-89.6497 39 0 
-89.3052 39 0 
-88.9608 39 0 
-88.6163 39 0 
-88.2719 39 0 
-87.9274 39 0 
-87.583 39 0 
-91.067 39.5 0 
-90.6743 39.5 0 
-90.2817 39.5 0 
-89.889 39.5 0 
-89.4963 39.5 0 
-89.1037 39.5 0 
-88.711 39.5 0 
-88.3183 39.5 0 
-87.9257 39.5 0 
-87.533 39.5 0 
-91.467 40 0 
-91.0299 40 0 
-90.5928 40 0 
-90.1557 40 0 
-89.7186 40 0 
-89.2814 40 0 
-88.8443 40 0 
-88.4072 40 0 
-87.9701 40 0 
-87.533 40 0 
-91.367 40.5 0 
-90.9401 40.5 0 
-90.5132 40.5 0 
-90.0863 40.5 0 
-89.6594 40.5 0 
-89.2326 40.5 0 
-88.8057 40.5 0 
-88.3788 40.5 0 
-87.9519 40.5 0 
-87.525 40.5 0 
-90.933 41 0 
-90.5543 41 0 
-90.1757 41 0 
-89.797 41 0 
-89.4183 41 0 
-89.0397 41 0 
-88.661 41 0 
-88.2823 41 0 
-87.9037 41 0 
-87.525 41 0 
-91.125 41.5 0 
-90.725 41.5 0 
-90.325 41.5 0 
-89.925 41.5 0 
-89.525 41.5 0 
-89.125 41.5 0 
-88.725 41.5 0 
-88.325 41.5 0 
-87.925 41.5 0 
-87.525 41.5 0 
-90.142 42 0 
-89.8651 42 0 
-89.5882 42 0 
-89.3113 42 0 
-89.0344 42 0 
-88.7576 42 0 
-88.4807 42 0 
-88.2038 42 0 
-87.9269 42 0 
-87.65 42 0 
-90.65 42.508 0 
-90.3333 42.508 0 
-90.0167 42.508 0 
-89.7 42.508 0 
-89.3833 42.508 0 
-89.0667 42.508 0 
-88.75 42.508 0 
-88.4333 42.508 0 
-88.1167 42.508 0 
-87.8 42.508 0 
-89.3 37 0 
-89.2111 37 0 
-89.1222 37 0 
-89.0333 37 0 
-88.9444 37 0 
-88.8556 37 0 
-88.7667 37 0 
-88.6778 37 0 
-88.5889 37 0 
-88.5 37 0 
-89.5 37.5 0 
-89.3408 37.5 0 
-89.1816 37.5 0 
-89.0223 37.5 0 
-88.8631 37.5 0 
-88.7039 37.5 0 
-88.5447 37.5 0 
-88.3854 37.5 0 
-88.2262 37.5 0 
-88.067 37.5 0 
-90.05 38 0 
-89.825 38 0 
-89.6 38 0 
-89.375 38 0 
-89.15 38 0 
-88.925 38 0 
-88.7 38 0 
-88.475 38 0 
-88.25 38 0 
-88.025 38 0 
-90.267 38.5 0 
-89.9799 38.5 0 
-89.6928 38.5 0 
-89.4057 38.5 0 
-89.1186 38.5 0 
-88.8314 38.5 0 
-88.5443 38.5 0 
-88.2572 38.5 0 
-87.9701 38.5 0 
-87.683 38.5 0 
-90.683 39 0 
-90.3386 39 0 
-89.9941 39 0 
-89.6497 39 0 
-89.3052 39 0 
-88.9608 39 0 
-88.6163 39 0 
-88.2719 39 0 
-87.9274 39 0 
-87.583 39 0 
-91.067 39.5 0 
-90.6743 39.5 0 
-90.2817 39.5 0 
-89.889 39.5 0 
-89.4963 39.5 0 
-89.1037 39.5 0 
-88.711 39.5 0 
-88.3183 39.5 0 
-87.9257 39.5 0 
-87.533 39.5 0 
-91.467 40 0 
-91.0299 40 0 
-90.5928 40 0 
-90.1557 40 0 
-89.7186 40 0 
-89.2814 40 0 
-88.8443 40 0 
-88.4072 40 0 
-87.9701 40 0 
-87.533 40 0 
-91.367 40.5 0 
-90.9401 40.5 0 
-90.5132 40.5 0 
-90.0863 40.5 0 
-89.6594 40.5 0 
-89.2326 40.5 0 
-88.8057 40.5 0 
-88.3788 40.5 0 
-87.9519 40.5 0 
-87.525 40.5 0 
-90.933 41 0 
-90.5543 41 0 
-90.1757 41 0 
-89.797 41 0 
-89.4183 41 0 
-89.0397 41 0 
-88.661 41 0 
-88.2823 41 0 
-87.9037 41 0 
-87.525 41 0 
-91.125 41.5 0 
-90.725 41.5 0 
-90.325 41.5 0 
-89.925 41.5 0 
-89.525 41.5 0 
-89.125 41.5 0 
-88.725 41.5 0 
-88.325 41.5 0 
-87.925 41.5 0 
-87.525 41.5 0 
-90.142 42 0 
-89.8651 42 0 
-89.5882 42 0 
-89.3113 42 0 
-89.0344 42 0 
-88.7576 42 0 
-88.4807 42 0 
-88.2038 42 0 
-87.9269 42 0 
-87.65 42 0 
-90.65 42.508 0 
-90.3333 42.508 0 
-90.0167 42.508 0 
-89.7 42.508 0 
-89.3833 42.508 0 
-89.0667 42.508 0 
-88.75 42.508 0 
-88.4333 42.508 0 
-88.1167 42.508 0 
-87.8 42.508 0 
-89.3 37 0 
-89.2111 37 0 
-89.1222 37 0 
-89.0333 37 0 
-88.9444 37 0 
-88.8556 37 0 
-88.7667 37 0 
-88.6778 37 0 
-88.5889 37 0 
-88.5 37 0 
-89.5 37.5 0 
-89.3408 37.5 0 
-89.1816 37.5 0 
-89.0223 37.5 0 
-88.8631 37.5 0 
-88.7039 37.5 0 
-88.5447 37.5 0 
-88.3854 37.5 0 
-88.2262 37.5 0 
-88.067 37.5 0 
-90.05 38 0 
-89.825 38 0 
-89.6 38 0 
-89.375 38 0 
-89.15 38 0 
-88.925 38 0 
-88.7 38 0 
-88.475 38 0 
-88.25 38 0 
-88.025 38 0 
-90.267 38.5 0 
-89.9799 38.5 0 
-89.6928 38.5 0 
-89.4057 38.5 0 
-89.1186 38.5 0 
-88.8314 38.5 0 
-88.5443 38.5 0 
-88.2572 38.5 0 
-87.9701 38.5 0 
-87.683 38.5 0 
-90.683 39 0 
-90.3386 39 0 
-89.9941 39 0 
-89.6497 39 0 
-89.3052 39 0 
-88.9608 39 0 
-88.6163 39 0 
-88.2719 39 0 
-87.9274 39 0 
-87.583 39 0 
-91.067 39.5 0 
-90.6743 39.5 0 
-90.2817 39.5 0 
-89.889 39.5 0 
-89.4963 39.5 0 
-89.1037 39.5 0 
-88.711 39.5 0 
-88.3183 39.5 0 
-87.9257 39.5 0 
-87.533 39.5 0 
-91.467 40 0 
-91.0299 40 0 
-90.5928 40 0 
-90.1557 40 0 
-89.7186 40 0 
-89.2814 40 0 
-88.8443 40 0 
-88.4072 40 0 
-87.9701 40 0 
-87.533 40 0 
-91.367 40.5 0 
-90.9401 40.5 0 
-90.5132 40.5 0 
-90.0863 40.5 0 
-89.6594 40.5 0 
-89.2326 40.5 0 
-88.8057 40.5 0 
-88.3788 40.5 0 
-87.9519 40.5 0 
-87.525 40.5 0 
-90.933 41 0 
-90.5543 41 0 
-90.1757 41 0 
-89.797 41 0 
-89.4183 41 0 
-89.0397 41 0 
-88.661 41 0 
-88.2823 41 0 
-87.9037 41 0 
-87.525 41 0 
-91.125 41.5 0 
-90.725 41.5 0 
-90.325 41.5 0 
-89.925 41.5 0 
-89.525 41.5 0 
-89.125 41.5 0 
-88.725 41.5 0 
-88.325 41.5 0 
-87.925 41.5 0 
-87.525 41.5 0 
-90.142 42 0 
-89.8651 42 0 
-89.5882 42 0 
-89.3113 42 0 
-89.0344 42 0 
-88.7576 42 0 
-88.4807 42 0 
-88.2038 42 0 
-87.9269 42 0 
-87.65 42 0 
-90.65 42.508 0 
-90.3333 42.508 0 
-90.0167 42.508 0 
-89.7 42.508 0 
-89.3833 42.508 0 
-89.0667 42.508 0 
-88.75 42.508 0 
-88.4333 42.508 0 
-88.1167 42.508 0 
-87.8 42.508 0 
-89.3 37 0 
-89.2111 37 0 
-89.1222 37 0 
-89.0333 37 0 
-88.9444 37 0 
-88.8556 37 0 
-88.7667 37 0 
-88.6778 37 0 
-88.5889 37 0 
-88.5 37 0 
-89.5 37.5 0 
-89.3408 37.5 0 
-89.1816 37.5 0 
-89.0223 37.5 0 
-88.8631 37.5 0 
-88.7039 37.5 0 
-88.5447 37.5 0 
-88.3854 37.5 0 
-88.2262 37.5 0 
-88.067 37.5 0 
-90.05 38 0 
-89.825 38 0 
-89.6 38 0 
-89.375 38 0 
-89.15 38 0 
-88.925 38 0 
-88.7 38 0 
-88.475 38 0 
-88.25 38 0 
-88.025 38 0 
-90.267 38.5 0 
-89.9799 38.5 0 
-89.6928 38.5 0 
-89.4057 38.5 0 
-89.1186 38.5 0 
-88.8314 38.5 0 
-88.5443 38.5 0 
-88.2572 38.5 0 
-87.9701 38.5 0 
-87.683 38.5 0 
-90.683 39 0 
-90.3386 39 0 
-89.9941 39 0 
-89.6497 39 0 
-89.3052 39 0 
-88.9608 39 0 
-88.6163 39 0 
-88.2719 39 0 
-87.9274 39 0 
-87.583 39 0 
-91.067 39.5 0 
-90.6743 39.5 0 
-90.2817 39.5 0 
-89.889 39.5 0 
-89.4963 39.5 0 
-89.1037 39.5 0 
-88.711 39.5 0 
-88.3183 39.5 0 
-87.9257 39.5 0 
-87.533 39.5 0 
-91.467 40 0 
-91.0299 40 0 
-90.5928 40 0 
-90.1557 40 0 
-89.7186 40 0 
-89.2814 40 0 
-88.8443 40 0 
-88.4072 40 0 
-87.9701 40 0 
-87.533 40 0 
-91.367 40.5 0 
-90.9401 40.5 0 
-90.5132 40.5 0 
-90.0863 40.5 0 
-89.6594 40.5 0 
-89.2326 40.5 0 
-88.8057 40.5 0 
-88.3788 40.5 0 
-87.9519 40.5 0 
-87.525 40.5 0 
-90.933 41 0 
-90.5543 41 0 
-90.1757 41 0 
-89.797 41 0 
-89.4183 41 0 
-89.0397 41 0 
-88.661 41 0 
-88.2823 41 0 
-87.9037 41 0 
-87.525 41 0 
-91.125 41.5 0 
-90.725 41.5 0 
-90.325 41.5 0 
-89.925 41.5 0 
-89.525 41.5 0 
-89.125 41.5 0 
-88.725 41.5 0 
-88.325 41.5 0 
-87.925 41.5 0 
-87.525 41.5 0 
-90.142 42 0 
-89.8651 42 0 
-89.5882 42 0 
-89.3113 42 0 
-89.0344 42 0 
-88.7576 42 0 
-88.4807 42 0 
-88.2038 42 0 
-87.9269 42 0 
-87.65 42 0 
-90.65 42.508 0 
-90.3333 42.508 0 
-90.0167 42.508 0 
-89.7 42.508 0 
-89.3833 42.508 0 
-89.0667 42.508 0 
-88.75 42.508 0 
-88.4333 42.508 0 
-88.1167 42.508 0 
-87.8 42.508 0 
-89.3 37 0 
-89.2111 37 0 
-89.1222 37 0 
-89.0333 37 0 
-88.9444 37 0 
-88.8556 37 0 
-88.7667 37 0 
-88.6778 37 0 
-88.5889 37 0 
-88.5 37 0 
-89.5 37.5 0 
-89.3408 37.5 0 
-89.1816 37.5 0 
-89.0223 37.5 0 
-88.8631 37.5 0 
-88.7039 37.5 0 
-88.5447 37.5 0 
-88.3854 37.5 0 
-88.2262 37.5 0 
-88.067 37.5 0 
-90.05 38 0 
-89.825 38 0 
-89.6 38 0 
-89.375 38 0 
-89.15 38 0 
-88.925 38 0 
-88.7 38 0 
-88.475 38 0 
-88.25 38 0 
-88.025 38 0 
-90.267 38.5 0 
-89.9799 38.5 0 
[...]
POINT_DATA 3600
VECTORS WindVector float
0.0847019 -0.154164 0 
0.0834374 -0.151935 0 
0.0819826 -0.149091 0 
0.080365 -0.145773 0 
0.07869 -0.142264 0 
0.0771531 -0.138968 0 
0.0760099 -0.136316 0 
0.0754973 -0.134632 0 
0.0757422 -0.134025 0 
0.0767188 -0.134371 0 
0.0859689 -0.173854 0 
0.0860098 -0.179552 0 
0.0848812 -0.177651 0 
0.0789125 -0.158438 0 
0.0673927 -0.129315 0 
0.0572463 -0.109502 0 
0.0616198 -0.11588 0 
0.0710425 -0.127466 0 
0.0796337 -0.136198 0 
0.0861782 -0.141741 0 
0.0782824 -0.169512 0 
0.0780329 -0.170501 0 
0.0810923 -0.169538 0 
0.0822213 -0.168932 0 
0.076167 -0.158287 0 
0.064987 -0.141637 0 
0.0754082 -0.144687 0 
0.0883249 -0.147577 0 
0.094948 -0.150035 0 
0.0984661 -0.152669 0 
0.0716579 -0.173721 0 
0.04573 -0.195071 0 
0.0553964 -0.187592 0 
0.0820587 -0.166326 0 
0.087507 -0.158789 0 
0.0905526 -0.156016 0 
0.10147 -0.153623 0 
0.105555 -0.158157 0 
0.109021 -0.171958 0 
0.110334 -0.165627 0 
0.109429 -0.138028 0 
0.0987956 -0.147613 0 
0.0903329 -0.157418 0 
0.0950467 -0.158599 0 
0.102573 -0.165014 0 
0.10175 -0.185082 0 
0.108834 -0.168961 0 
0.114018 -0.17155 0 
0.115939 -0.173139 0 
0.12012 -0.163951 0 
0.134354 -0.115714 0 
0.131273 -0.114415 0 
0.113291 -0.121617 0 
0.115532 -0.130331 0 
0.121668 -0.136209 0 
0.121621 -0.150828 0 
0.133793 -0.160026 0 
0.145488 -0.162178 0 
0.142652 -0.159367 0 
0.13844 -0.156449 0 
0.133168 -0.125706 0 
0.140066 -0.112276 0 
0.127396 -0.107059 0 
0.0734834 -0.0679817 0 
0.109355 -0.111847 0 
0.127275 -0.133005 0 
0.155209 -0.155561 0 
0.224074 -0.212638 0 
0.161491 -0.150958 0 
0.155083 -0.151839 0 
0.140514 -0.140992 0 
0.147175 -0.149204 0 
0.130312 -0.129961 0 
0.103959 -0.0950246 0 
0.122972 -0.112917 0 
0.131632 -0.128024 0 
0.157957 -0.144273 0 
0.181383 -0.154268 0 
0.182623 -0.150128 0 
0.169512 -0.147311 0 
0.175903 -0.191827 0 
0.174435 -0.18944 0 
0.134857 -0.129006 0 
0.127762 -0.110881 0 
0.13049 -0.122052 0 
0.145359 -0.127785 0 
0.176804 -0.136198 0 
0.247939 -0.15048 0 
0.223738 -0.146756 0 
0.1809 -0.141034 0 
0.146668 -0.151695 0 
0.147981 -0.152243 0 
0.13724 -0.135015 0 
0.129757 -0.120475 0 
0.134253 -0.117806 0 
0.151823 -0.120064 0 
0.160358 -0.118088 0 
0.157793 -0.112643 0 
0.168731 -0.122815 0 
0.164881 -0.129089 0 
0.114656 -0.108828 0 
0.101823 -0.0959775 0 
0.101625 -0.0934791 0 
0.130204 -0.106775 0 
0.164194 -0.117917 0 
0.16852 -0.116955 0 
0.124723 -0.0840383 0 
0.123899 -0.0845192 0 
0.139011 -0.102823 0 
0.147104 -0.115047 0 
0.123273 -0.119162 0 
0.114751 -0.109375 0 
0.100384 -0.0955183 0 
0.0882598 -0.0850846 0 
0.104329 -0.0943328 0 
0.130248 -0.106944 0 
0.140076 -0.109206 0 
0.138877 -0.106436 0 
0.138606 -0.107421 0 
0.141093 -0.112816 0 
0.0611245 -0.169125 0 
0.0617313 -0.165883 0 
0.0622251 -0.161801 0 
0.0626462 -0.157064 0 
0.0630226 -0.152064 0 
0.0633482 -0.147371 0 
0.0635785 -0.143607 0 
0.0636534 -0.141251 0 
0.0635337 -0.140469 0 
0.0632249 -0.141091 0 
0.066143 -0.195013 0 
0.0715137 -0.201971 0 
0.0724195 -0.199192 0 
0.0685401 -0.173251 0 
0.0670906 -0.132679 0 
0.0691739 -0.104115 0 
0.0677924 -0.113596 0 
0.0650293 -0.131002 0 
0.0629475 -0.144178 0 
0.0616808 -0.152487 0 
0.0309533 -0.191134 0 
0.0359732 -0.191819 0 
0.0476501 -0.19024 0 
0.057954 -0.189279 0 
0.0558346 -0.176191 0 
0.0463084 -0.156049 0 
0.0528086 -0.159446 0 
0.0596765 -0.163869 0 
0.062062 -0.167118 0 
0.0623852 -0.168996 0 
0.0149393 -0.197374 0 
-0.00897137 -0.22151 0 
0.00227963 -0.212382 0 
0.0373465 -0.185511 0 
0.0501986 -0.175134 0 
0.0550379 -0.172467 0 
0.0635991 -0.174837 0 
0.0670341 -0.178287 0 
0.0685101 -0.184475 0 
0.0654735 -0.179839 0 
0.0376966 -0.162803 0 
0.0313847 -0.170801 0 
0.0262245 -0.178765 0 
0.0331751 -0.177215 0 
0.0497359 -0.180394 0 
0.0628081 -0.195624 0 
0.061296 -0.18422 0 
0.0670299 -0.185252 0 
0.0684845 -0.185944 0 
0.0653206 -0.180179 0 
0.0489458 -0.147453 0 
0.0474989 -0.146687 0 
0.037406 -0.148271 0 
0.0315574 -0.143053 0 
0.0309275 -0.140528 0 
0.0499128 -0.167702 0 
0.0634886 -0.182592 0 
0.0716119 -0.188683 0 
0.0704579 -0.184432 0 
0.0665851 -0.1788 0 
0.0458964 -0.151296 0 
0.0510522 -0.145404 0 
0.0452005 -0.142056 0 
0.0219695 -0.119649 0 
0.0315923 -0.136192 0 
0.0439999 -0.153716 0 
0.0681525 -0.184518 0 
0.110372 -0.257516 0 
0.0799094 -0.186632 0 
0.0702062 -0.178093 0 
0.0454467 -0.159131 0 
0.0476638 -0.165838 0 
0.0421183 -0.154822 0 
0.0351889 -0.135447 0 
0.0481024 -0.150859 0 
0.0505142 -0.159937 0 
0.0637472 -0.171822 0 
0.0820613 -0.184235 0 
0.0822005 -0.177469 0 
0.0705138 -0.170213 0 
0.0551597 -0.19283 0 
0.0547528 -0.191423 0 
0.0429729 -0.151221 0 
0.0457921 -0.144202 0 
0.0464347 -0.153791 0 
0.0437564 -0.151377 0 
0.0592928 -0.155142 0 
0.117472 -0.170637 0 
0.0977254 -0.16535 0 
0.0650046 -0.156976 0 
0.0403323 -0.157277 0 
0.0393954 -0.155965 0 
0.0314413 -0.138024 0 
0.0236027 -0.122187 0 
0.0200422 -0.122983 0 
0.0158595 -0.137944 0 
0.00529391 -0.133634 0 
-0.00733159 -0.103087 0 
0.020674 -0.120815 0 
0.0331061 -0.133834 0 
-0.00942134 -0.0641142 0 
-0.0328287 -0.0200977 0 
-0.037869 -0.0139978 0 
-0.0141725 -0.0797184 0 
0.00279692 -0.145685 0 
-0.00256164 -0.14979 0 
-0.0884762 -0.0372925 0 
-0.0869112 -0.0355226 0 
-0.0373921 -0.078701 0 
-0.00534279 -0.105425 0 
0.00707741 -0.0958487 0 
-0.00972818 -0.0647302 0 
-0.035122 -0.0159534 0 
-0.0548989 0.0232103 0 
-0.0380497 -0.0182264 0 
-0.0169555 -0.0795176 0 
-0.0170568 -0.0976759 0 
-0.0266546 -0.0909645 0 
-0.0249626 -0.0908791 0 
-0.0114462 -0.101481 0 
0.0590472 -0.155674 0 
0.0599542 -0.153095 0 
0.060735 -0.149693 0 
0.0614425 -0.145656 0 
0.0621011 -0.141353 0 
0.062671 -0.13729 0 
0.0630445 -0.133996 0 
0.0630871 -0.131855 0 
0.0627072 -0.130984 0 
0.0619015 -0.131223 0 
0.0671118 -0.182859 0 
0.073876 -0.191878 0 
0.0751143 -0.189847 0 
0.0707098 -0.164473 0 
0.0701345 -0.127037 0 
0.0743177 -0.10229 0 
0.0715769 -0.110029 0 
0.0654654 -0.12383 0 
0.0599884 -0.133887 0 
0.055945 -0.139868 0 
0.0318222 -0.166659 0 
0.0373621 -0.169477 0 
0.0484522 -0.171947 0 
0.059206 -0.17514 0 
0.0586372 -0.163736 0 
0.0519067 -0.14408 0 
0.0532287 -0.147405 0 
0.0534687 -0.152297 0 
0.0522964 -0.154977 0 
0.0505328 -0.154783 0 
0.0187572 -0.168204 0 
0.00713576 -0.189349 0 
0.0136223 -0.182119 0 
0.0352956 -0.161876 0 
0.0448125 -0.155125 0 
0.0477054 -0.155048 0 
0.050784 -0.163859 0 
0.0507212 -0.167169 0 
0.0470281 -0.165743 0 
0.0456952 -0.160066 0 
0.0291087 -0.134946 0 
0.0236386 -0.142035 0 
0.0204059 -0.149341 0 
0.0244695 -0.148429 0 
0.036589 -0.152634 0 
0.0483908 -0.165484 0 
0.0446117 -0.159548 0 
0.0450207 -0.163396 0 
0.0448653 -0.163907 0 
0.0433157 -0.157478 0 
0.0512532 -0.12318 0 
0.0493623 -0.122269 0 
0.0226675 -0.119375 0 
0.0119453 -0.110944 0 
0.0109126 -0.107246 0 
0.0290374 -0.138059 0 
0.040144 -0.155531 0 
0.0457673 -0.164074 0 
0.0452071 -0.160675 0 
0.0423416 -0.153891 0 
0.0295291 -0.122871 0 
0.0543222 -0.121777 0 
0.0394547 -0.116655 0 
-0.00651293 -0.0914031 0 
0.0051195 -0.103904 0 
0.0166388 -0.120822 0 
0.03799 -0.154979 0 
0.066107 -0.223174 0 
0.0524929 -0.16854 0 
0.0438905 -0.152597 0 
0.00579691 -0.126892 0 
-0.003833 -0.133173 0 
-0.00514337 -0.122343 0 
-0.000327082 -0.104344 0 
0.00935454 -0.116854 0 
0.0124123 -0.122698 0 
0.0311816 -0.138111 0 
0.0532024 -0.159719 0 
0.0562091 -0.155272 0 
0.0444731 -0.142121 0 
-0.0361921 -0.156634 0 
-0.0359423 -0.155122 0 
-0.00593954 -0.115414 0 
0.00638711 -0.109436 0 
0.00413145 -0.112034 0 
0.00251417 -0.0997974 0 
0.0260498 -0.11028 0 
0.10069 -0.164001 0 
0.0778556 -0.148107 0 
0.0402189 -0.123031 0 
-0.0176155 -0.120085 0 
-0.0218831 -0.118186 0 
-0.0200343 -0.0985543 0 
-0.0211781 -0.0776534 0 
-0.0291883 -0.0602627 0 
-0.0541403 -0.0258702 0 
-0.0627471 -0.00520295 0 
-0.0312167 -0.0211496 0 
-0.000759275 -0.0608616 0 
0.00834909 -0.0812847 0 
-0.0487054 -0.0308812 0 
-0.0679152 0.00458384 0 
-0.0750433 0.016284 0 
-0.0754526 0.00824929 0 
-0.104753 0.0338174 0 
-0.113248 0.0466776 0 
-0.086357 0.0669471 0 
-0.078975 0.0592919 0 
-0.0506917 0.00643786 0 
-0.0276831 -0.0326652 0 
-0.0329452 -0.0572259 0 
-0.0474413 -0.0306615 0 
-0.0684402 0.00654182 0 
-0.0842105 0.0338468 0 
-0.0757155 0.01825 0 
-0.0686724 0.00403883 0 
-0.0673658 0.00588073 0 
-0.062041 0.00749491 0 
-0.0521807 -0.00227089 0 
-0.0383922 -0.0227335 0 
0.105892 -0.103924 0 
0.105202 -0.10271 0 
0.104348 -0.100785 0 
0.103375 -0.0983159 0 
0.102368 -0.0955872 0 
0.101437 -0.0929512 0 
0.100694 -0.0907407 0 
0.10022 -0.0891695 0 
0.100034 -0.0882734 0 
0.100102 -0.0879293 0 
0.112212 -0.12989 0 
0.114066 -0.139689 0 
0.113397 -0.138927 0 
0.107062 -0.118824 0 
0.0987175 -0.0907745 0 
0.0938443 -0.0735833 0 
0.0953446 -0.0783608 0 
0.0982563 -0.0860528 0 
0.100665 -0.0907115 0 
0.102265 -0.0925839 0 
0.114436 -0.106813 0 
0.113753 -0.112921 0 
0.111429 -0.118583 0 
0.108616 -0.125544 0 
0.0996214 -0.121606 0 
0.0857862 -0.112367 0 
0.0946273 -0.109264 0 
0.10411 -0.107488 0 
0.107283 -0.106943 0 
0.107005 -0.104326 0 
0.118735 -0.105047 0 
0.126817 -0.137456 0 
0.12338 -0.129008 0 
0.112531 -0.110103 0 
0.106997 -0.11043 0 
0.106152 -0.111761 0 
0.113041 -0.115691 0 
0.112584 -0.118204 0 
0.105057 -0.116227 0 
0.10583 -0.105741 0 
0.112429 -0.0389661 0 
0.113157 -0.0591793 0 
0.114675 -0.0792524 0 
0.114382 -0.0858348 0 
0.118025 -0.102558 0 
0.130568 -0.139528 0 
0.117621 -0.112516 0 
0.108004 -0.110532 0 
0.105763 -0.109671 0 
0.107703 -0.0957456 0 
0.120048 0.000677638 0 
0.120033 -0.00192345 0 
0.110426 -0.0171527 0 
0.107247 -0.0419172 0 
0.107191 -0.056476 0 
0.114706 -0.0719092 0 
0.120829 -0.0871971 0 
0.123143 -0.0932116 0 
0.118248 -0.0883915 0 
0.113227 -0.0789157 0 
0.109612 0.0158547 0 
0.121732 0.0125988 0 
0.116663 0.0155557 0 
0.101418 0.0349708 0 
0.105881 -0.00940057 0 
0.111098 -0.0291729 0 
0.12594 -0.0679959 0 
0.179141 -0.150851 0 
0.124318 -0.0916347 0 
0.117097 -0.066707 0 
0.100691 0.0488221 0 
0.100784 0.0722071 0 
0.100755 0.0628759 0 
0.103918 0.0440215 0 
0.118774 0.0415178 0 
0.118286 0.0172525 0 
0.117681 -0.0277112 0 
0.13276 -0.0563259 0 
0.131012 -0.0468354 0 
0.1171 -0.0380541 0 
0.0935773 0.138373 0 
0.0936869 0.137373 0 
0.0964712 0.064674 0 
0.1059 0.0520556 0 
0.109907 0.0418117 0 
0.0885875 0.0321626 0 
0.0994249 0.0193317 0 
0.17684 0.0118841 0 
0.151115 0.00771224 0 
0.108997 -0.00174564 0 
0.0835267 0.0781955 0 
0.080885 0.0865517 0 
0.0721819 0.0729041 0 
0.0604291 0.0643963 0 
0.0438428 0.0676734 0 
0.00253746 0.0901011 0 
-0.018994 0.102944 0 
0.008269 0.0843816 0 
0.0499822 0.053972 0 
0.0663339 0.0313181 0 
0.0113515 0.0852475 0 
-0.0219338 0.101629 0 
-0.0338472 0.107983 0 
-0.031607 0.109332 0 
-0.0684434 0.138842 0 
-0.0824811 0.149148 0 
-0.0796492 0.141414 0 
-0.0705979 0.134279 0 
-0.0211365 0.0974103 0 
0.0161049 0.0672621 0 
0.0350771 0.0675995 0 
0.0105714 0.0810075 0 
-0.0242177 0.100783 0 
-0.0498756 0.115904 0 
-0.0365785 0.108034 0 
-0.0263014 0.102829 0 
-0.0284698 0.104474 0 
-0.0273035 0.102346 0 
-0.0160085 0.0923679 0 
0.00425372 0.0750864 0 
0.0475494 0.10836 0 
0.0462916 0.107693 0 
0.044993 0.106897 0 
0.0436292 0.106007 0 
0.0422399 0.105095 0 
0.0409635 0.104258 0 
0.040023 0.103603 0 
0.0396478 0.103209 0 
0.0399715 0.103103 0 
0.0409742 0.103259 0 
0.0434183 0.112829 0 
0.0380483 0.114036 0 
0.0365712 0.113379 0 
0.0373245 0.108152 0 
0.0311763 0.101085 0 
0.0214574 0.096788 0 
0.0262672 0.0981875 0 
0.0362967 0.100997 0 
0.0447403 0.103442 0 
0.050563 0.105214 0 
0.0689897 0.116109 0 
0.0656507 0.115259 0 
0.0587385 0.112666 0 
0.0517329 0.109595 0 
0.0538919 0.101413 0 
0.0613931 0.0890935 0 
0.0591386 0.0970354 0 
0.0588791 0.10535 0 
0.0601527 0.108219 0 
0.0610561 0.108453 0 
0.0766594 0.119554 0 
0.0821596 0.12804 0 
0.0798262 0.12456 0 
0.0736899 0.113566 0 
0.073069 0.107987 0 
0.0715104 0.106942 0 
0.0665913 0.112237 0 
0.0639302 0.111496 0 
0.061543 0.105288 0 
0.0645042 0.107549 0 
0.0705791 0.106382 0 
0.0739253 0.110165 0 
0.0768314 0.113622 0 
0.0787371 0.113738 0 
0.0866036 0.116858 0 
0.105987 0.126759 0 
0.0845036 0.116774 0 
0.0684943 0.108244 0 
0.0657084 0.106551 0 
0.0702837 0.11047 0 
0.060171 0.0949403 0 
0.0609953 0.0947259 0 
0.071887 0.100907 0 
0.0763261 0.101364 0 
0.0776444 0.101131 0 
0.0839128 0.113468 0 
0.087931 0.119924 0 
0.0877417 0.120962 0 
0.0832266 0.11771 0 
0.080455 0.116813 0 
0.0681656 0.101435 0 
0.0586392 0.0928339 0 
0.0636816 0.0936373 0 
0.0767566 0.0877185 0 
0.0772926 0.0992265 0 
0.0808608 0.10971 0 
0.0931693 0.125261 0 
0.136545 0.172277 0 
0.086974 0.114294 0 
0.0872283 0.121014 0 
0.0775538 0.108066 0 
0.0825894 0.109918 0 
0.0813346 0.106037 0 
0.0762557 0.0988111 0 
0.0767343 0.110452 0 
0.0818088 0.117488 0 
0.090857 0.125617 0 
0.100594 0.132927 0 
0.0997956 0.13225 0 
0.093541 0.12889 0 
0.0988635 0.121724 0 
0.0984606 0.121398 0 
0.078819 0.10999 0 
0.0731536 0.107831 0 
0.0777918 0.116116 0 
0.0791546 0.120165 0 
0.0932491 0.133812 0 
0.133605 0.167163 0 
0.120612 0.156174 0 
0.0980306 0.136886 0 
0.0826103 0.114475 0 
0.0831453 0.115053 0 
0.0763625 0.112729 0 
0.0696611 0.11143 0 
0.0653126 0.112448 0 
0.0559957 0.112843 0 
0.0567981 0.117919 0 
0.0794963 0.134021 0 
0.0890846 0.137282 0 
0.0877532 0.132948 0 
0.0587417 0.109639 0 
0.0498689 0.107557 0 
0.0467772 0.10715 0 
0.04695 0.108757 0 
0.0334567 0.105181 0 
0.0319039 0.106351 0 
0.0698156 0.135667 0 
0.0732934 0.137294 0 
0.0742802 0.131917 0 
0.0770164 0.129347 0 
0.0650632 0.111366 0 
0.0587123 0.110043 0 
0.0495848 0.107674 0 
0.0427832 0.105629 0 
0.0470242 0.108087 0 
0.0520423 0.112377 0 
0.0563507 0.117145 0 
0.0631522 0.122856 0 
0.0681586 0.125539 0 
0.0713847 0.125518 0 
-0.124205 0.0272162 0 
-0.121662 0.0265591 0 
-0.118686 0.0256922 0 
-0.115334 0.024652 0 
-0.111817 0.0235266 0 
-0.10852 0.0224553 0 
-0.105933 0.0216003 0 
-0.104486 0.0210963 0 
-0.104378 0.0210005 0 
-0.105513 0.021278 0 
-0.130777 0.032297 0 
-0.129664 0.0337427 0 
-0.127431 0.0332509 0 
-0.117048 0.0281263 0 
-0.0931691 0.0186971 0 
-0.0709934 0.0109904 0 
-0.0796395 0.0138306 0 
-0.096077 0.0191851 0 
-0.108767 0.0232749 0 
-0.117008 0.0258186 0 
-0.133395 0.0258149 0 
-0.132586 0.0271783 0 
-0.133956 0.029748 0 
-0.135782 0.0326045 0 
-0.141538 0.0345187 0 
-0.151862 0.0366462 0 
-0.139273 0.0337379 0 
-0.127272 0.0324069 0 
-0.124969 0.0327939 0 
-0.126832 0.032694 0 
-0.13185 0.0230365 0 
-0.115331 0.0216644 0 
-0.120914 0.0228594 0 
-0.136946 0.0272347 0 
-0.142335 0.0300155 0 
-0.140104 0.0320745 0 
-0.125664 0.0360179 0 
-0.122408 0.0381602 0 
-0.128244 0.0390578 0 
-0.132804 0.0359744 0 
-0.163294 0.020369 0 
-0.152887 0.0218496 0 
-0.143803 0.02304 0 
-0.14355 0.024256 0 
-0.14479 0.0246466 0 
-0.142137 0.0209889 0 
-0.14142 0.0284736 0 
-0.135074 0.0364515 0 
-0.134279 0.037854 0 
-0.140017 0.034388 0 
-0.189341 0.0142296 0 
-0.186968 0.0145471 0 
-0.169138 0.0195015 0 
-0.155805 0.0232745 0 
-0.150695 0.0249921 0 
-0.154493 0.0257501 0 
-0.154618 0.0294844 0 
-0.152194 0.0330976 0 
-0.148553 0.0329252 0 
-0.150095 0.0313842 0 
-0.189835 0.0164795 0 
-0.196461 0.0127106 0 
-0.189742 0.0142762 0 
-0.16729 0.0184329 0 
-0.165273 0.0206897 0 
-0.168924 0.0225298 0 
-0.169419 0.0300273 0 
-0.209994 0.0484808 0 
-0.136137 0.0341839 0 
-0.156521 0.0293965 0 
-0.201103 0.0175356 0 
-0.212469 0.0170263 0 
-0.200871 0.0166793 0 
-0.180479 0.0140854 0 
-0.201176 0.00889034 0 
-0.203873 0.0152523 0 
-0.182861 0.0235638 0 
-0.17664 0.0252472 0 
-0.17653 0.0216924 0 
-0.174306 0.0229166 0 
-0.246679 0.0178598 0 
-0.245439 0.0175746 0 
-0.198104 0.0139323 0 
-0.189749 0.00836125 0 
-0.209 0.0125432 0 
-0.197309 0.0193975 0 
-0.200496 0.0167065 0 
-0.243764 -0.00776657 0 
-0.225015 0.00121152 0 
-0.19249 0.0162823 0 
-0.206872 0.0188061 0 
-0.209093 0.0184245 0 
-0.194987 0.0181282 0 
-0.184151 0.0185254 0 
-0.185405 0.0228846 0 
-0.194962 0.0352485 0 
-0.196184 0.0384356 0 
-0.185552 0.0245354 0 
-0.190502 0.0191416 0 
-0.186339 0.0203895 0 
-0.159901 0.0195418 0 
-0.142543 0.018817 0 
-0.140748 0.0203437 0 
-0.170152 0.032056 0 
-0.203512 0.0524716 0 
-0.207177 0.0559189 0 
-0.160432 0.0300036 0 
-0.158802 0.0276767 0 
-0.171192 0.0270033 0 
-0.176799 0.0254427 0 
-0.169886 0.0207577 0 
-0.158321 0.0202845 0 
-0.139969 0.0187613 0 
-0.125138 0.0170289 0 
-0.142217 0.0218133 0 
-0.168704 0.0307435 0 
-0.177575 0.0340166 0 
-0.174976 0.0318192 0 
-0.173343 0.0293549 0 
-0.174402 0.0276315 0 
0.00349073 0.0515317 0 
0.00453184 0.0510835 0 
0.00555045 0.0505456 0 
0.00656465 0.0499352 0 
0.00754917 0.0492975 0 
0.00841296 0.0487062 0 
0.00900726 0.0482503 0 
0.00917474 0.0480062 0 
0.00881689 0.0480089 0 
0.00793462 0.0482418 0 
0.00877538 0.0538709 0 
0.0118184 0.0540235 0 
0.0128702 0.0535452 0 
0.0133541 0.0508103 0 
0.0169882 0.0459879 0 
0.0218933 0.0420565 0 
0.0192878 0.0436454 0 
0.0132463 0.0469466 0 
0.00730106 0.0497803 0 
0.00235274 0.0517201 0 
0.00193666 0.0580891 0 
0.00529405 0.0577214 0 
0.00719709 0.0558369 0 
0.0105155 0.053736 0 
0.0154217 0.0502767 0 
0.0221419 0.0453771 0 
0.0148596 0.0497364 0 
0.0069385 0.0554878 0 
0.00249931 0.0579896 0 
-0.00171425 0.0580743 0 
0.00245198 0.0605395 0 
0.0275113 0.0684136 0 
0.0205182 0.0657749 0 
0.00539497 0.0588066 0 
0.00775173 0.057208 0 
0.0079083 0.0578641 0 
0.00334474 0.0633838 0 
0.00111601 0.0650382 0 
-0.00528277 0.0632722 0 
-0.0112397 0.0604162 0 
-0.0434462 0.046546 0 
-0.0309079 0.0508585 0 
-0.018434 0.0549266 0 
-0.0158555 0.0562401 0 
-0.00355031 0.0625733 0 
0.0294562 0.0779537 0 
-0.00109167 0.0649887 0 
-0.0118266 0.0619335 0 
-0.0145791 0.0614559 0 
-0.0240271 0.0581122 0 
-0.0664385 0.0343159 0 
-0.0649924 0.0343876 0 
-0.0585884 0.0415992 0 
-0.0522501 0.043934 0 
-0.048868 0.0446942 0 
-0.0377818 0.0531584 0 
-0.0405288 0.0552957 0 
-0.0493483 0.0534142 0 
-0.0479011 0.0527547 0 
-0.0468264 0.0529719 0 
-0.0762896 0.0402693 0 
-0.0730055 0.0320939 0 
-0.0740006 0.0336291 0 
-0.0762855 0.0336841 0 
-0.0688855 0.0396805 0 
-0.0682868 0.0442121 0 
-0.0719551 0.0493813 0 
-0.106083 0.0605086 0 
-0.064058 0.0446025 0 
-0.0645759 0.0492829 0 
-0.0960537 0.0466674 0 
-0.109423 0.048939 0 
-0.102883 0.0447952 0 
-0.0905989 0.0351718 0 
-0.106332 0.0333316 0 
-0.101696 0.0399511 0 
-0.0874231 0.046474 0 
-0.0870551 0.0476658 0 
-0.0866649 0.0471317 0 
-0.0808971 0.0486712 0 
-0.148429 0.0618237 0 
-0.147986 0.0610698 0 
-0.107566 0.0425748 0 
-0.103737 0.0332416 0 
-0.110275 0.0379077 0 
-0.101514 0.0441423 0 
-0.103791 0.0476782 0 
-0.130487 0.047073 0 
-0.118625 0.0477878 0 
-0.0963097 0.0491578 0 
-0.112746 0.0526707 0 
-0.117372 0.0530543 0 
-0.108808 0.0493635 0 
-0.103092 0.0465631 0 
-0.102867 0.0471652 0 
-0.105207 0.0505935 0 
-0.108106 0.0528802 0 
-0.110287 0.0529652 0 
-0.107241 0.0514487 0 
-0.0984491 0.0507891 0 
-0.10389 0.0537316 0 
-0.106135 0.0567859 0 
-0.106991 0.0576181 0 
-0.106607 0.0551678 0 
-0.110205 0.0551207 0 
-0.11194 0.0556488 0 
-0.114907 0.0573741 0 
-0.114037 0.0570696 0 
-0.107278 0.0545283 0 
-0.101089 0.0528165 0 
-0.0986795 0.0522644 0 
-0.101316 0.0541773 0 
-0.105135 0.0574155 0 
-0.108112 0.0600648 0 
-0.106331 0.0578762 0 
-0.104915 0.055137 0 
-0.105403 0.0544783 0 
-0.105634 0.0544725 0 
-0.103949 0.0540772 0 
-0.100222 0.0532227 0 
0.000300057 0.109575 0 
-0.000482151 0.109173 0 
-0.00157854 0.108796 0 
-0.0029133 0.108449 0 
-0.00435393 0.108143 0 
-0.00573462 0.1079 0 
-0.00690079 0.107744 0 
-0.0077587 0.107701 0 
-0.00830259 0.107784 0 
-0.00860123 0.107989 0 
0.0122332 0.109829 0 
0.0162825 0.108817 0 
0.0157654 0.108171 0 
0.00637293 0.106759 0 
-0.00691804 0.105594 0 
-0.0149809 0.105261 0 
-0.0129612 0.10558 0 
-0.0101881 0.10686 0 
-0.00906955 0.108613 0 
-0.00910777 0.110224 0 
0.0056493 0.128482 0 
0.00711334 0.125307 0 
0.00828427 0.116816 0 
0.0107188 0.107674 0 
0.0102096 0.0955392 0 
0.00909785 0.0791482 0 
0.00275019 0.0935665 0 
-0.00454413 0.109182 0 
-0.00768071 0.114856 0 
-0.00939094 0.115676 0 
0.00768426 0.139287 0 
0.0207165 0.160295 0 
0.0158699 0.151308 0 
0.00232555 0.123293 0 
-0.00117158 0.11104 0 