# vtk DataFile Version 3.0
Autogenerated from august.txt by weatherdisplay
ASCII
DATASET STRUCTURED_GRID
DIMENSIONS 10 12 31
POINTS 3720 float
-89.3 37 0 
-89.2111 37 0 
-89.1222 37 0 
-89.0333 37 0 
-88.9444 37 0 
-88.8556 37 0 
-88.7667 37 0 
-88.6778 37 0 
-88.5889 37 0 
-88.5 37 0 
-89.5 37.5 0 
-89.3408 37.5 0 
-89.1816 37.5 0 
-89.0223 37.5 0 
-88.8631 37.5 0 
-88.7039 37.5 0 
-88.5447 37.5 0 
-88.3854 37.5 0 
-88.2262 37.5 0 
-88.067 37.5 0 
-90.05 38 0 
-89.825 38 0 
-89.6 38 0 
-89.375 38 0 
-89.15 38 0 
-88.925 38 0 
-88.7 38 0 
-88.475 38 0 
-88.25 38 0 
-88.025 38 0 
-90.267 38.5 0 
-89.9799 38.5 0 
-89.6928 38.5 0 
-89.4057 38.5 0 
-89.1186 38.5 0 
-88.8314 38.5 0 
-88.5443 38.5 0 
-88.2572 38.5 0 
-87.9701 38.5 0 
-87.683 38.5 0 
-90.683 39 0 
-90.3386 39 0 
-89.9941 39 0 
-89.6497 39 0 
-89.3052 39 0 
-88.9608 39 0 
-88.6163 39 0 
-88.2719 39 0 
-87.9274 39 0 
-87.583 39 0 
-91.067 39.5 0 
-90.6743 39.5 0 
-90.2817 39.5 0 
-89.889 39.5 0 
-89.4963 39.5 0 
-89.1037 39.5 0 
-88.711 39.5 0 
-88.3183 39.5 0 
-87.9257 39.5 0 
-87.533 39.5 0 
-91.467 40 0 
-91.0299 40 0 
-90.5928 40 0 
-90.1557 40 0 
-89.7186 40 0 
-89.2814 40 0 
-88.8443 40 0 
-88.4072 40 0 
-87.9701 40 0 
-87.533 40 0 
-91.367 40.5 0 
-90.9401 40.5 0 
-90.5132 40.5 0 
-90.0863 40.5 0 
-89.6594 40.5 0 
-89.2326 40.5 0 
-88.8057 40.5 0 
-88.3788 40.5 0 
-87.9519 40.5 0 
-87.525 40.5 0 
-90.933 41 0 
-90.5543 41 0 
-90.1757 41 0 
-89.797 41 0 
-89.4183 41 0 
-89.0397 41 0 
-88.661 41 0 
-88.2823 41 0 
-87.9037 41 0 
-87.525 41 0 
-91.125 41.5 0 
-90.725 41.5 0 
-90.325 41.5 0 
-89.925 41.5 0 
-89.525 41.5 0 
-89.125 41.5 0 
-88.725 41.5 0 
-88.325 41.5 0 
-87.925 41.5 0 
-87.525 41.5 0 
-90.142 42 0 
-89.8651 42 0 
-89.5882 42 0 
-89.3113 42 0 
-89.0344 42 0 
-88.7576 42 0 
-88.4807 42 0 
-88.2038 42 0 
-87.9269 42 0 
-87.65 42 0 
-90.65 42.508 0 
-90.3333 42.508 0 
-90.0167 42.508 0 
-89.7 42.508 0 
-89.3833 42.508 0 
-89.0667 42.508 0 
-88.75 42.508 0 
-88.4333 42.508 0 
-88.1167 42.508 0 
-87.8 42.508 0 
-89.3 37 0 
-89.2111 37 0 
-89.1222 37 0 
-89.0333 37 0 
-88.9444 37 0 
-88.8556 37 0 
-88.7667 37 0 
-88.6778 37 0 
-88.5889 37 0 
-88.5 37 0 
-89.5 37.5 0 
-89.3408 37.5 0 
-89.1816 37.5 0 
-89.0223 37.5 0 
-88.8631 37.5 0 
-88.7039 37.5 0 
-88.5447 37.5 0 
-88.3854 37.5 0 
-88.2262 37.5 0 
-88.067 37.5 0 
-90.05 38 0 
-89.825 38 0 
-89.6 38 0 
-89.375 38 0 
-89.15 38 0 
-88.925 38 0 
-88.7 38 0 
-88.475 38 0 
-88.25 38 0 
-88.025 38 0 
-90.267 38.5 0 
-89.9799 38.5 0 
-89.6928 38.5 0 
-89.4057 38.5 0 
-89.1186 38.5 0 
-88.8314 38.5 0 
-88.5443 38.5 0 
-88.2572 38.5 0 
-87.9701 38.5 0 
-87.683 38.5 0 
-90.683 39 0 
-90.3386 39 0 
-89.9941 39 0 
-89.6497 39 0 
-89.3052 39 0 
-88.9608 39 0 
-88.6163 39 0 
-88.2719 39 0 
-87.9274 39 0 
-87.583 39 0 
-91.067 39.5 0 
-90.6743 39.5 0 
-90.2817 39.5 0 
-89.889 39.5 0 
-89.4963 39.5 0 
-89.1037 39.5 0 
-88.711 39.5 0 
-88.3183 39.5 0 
-87.9257 39.5 0 
-87.533 39.5 0 
-91.467 40 0 
-91.0299 40 0 
-90.5928 40 0 
-90.1557 40 0 
-89.7186 40 0 
-89.2814 40 0 
-88.8443 40 0 
-88.4072 40 0 
-87.9701 40 0 
-87.533 40 0 
-91.367 40.5 0 
-90.9401 40.5 0 
-90.5132 40.5 0 
-90.0863 40.5 0 
-89.6594 40.5 0 
-89.2326 40.5 0 
-88.8057 40.5 0 
-88.3788 40.5 0 
-87.9519 40.5 0 
-87.525 40.5 0 
-90.933 41 0 
-90.5543 41 0 
-90.1757 41 0 
-89.797 41 0 
-89.4183 41 0 
-89.0397 41 0 
-88.661 41 0 
-88.2823 41 0 
-87.9037 41 0 
-87.525 41 0 
-91.125 41.5 0 
-90.725 41.5 0 
-90.325 41.5 0 
-89.925 41.5 0 
-89.525 41.5 0 
-89.125 41.5 0 
-88.725 41.5 0 
-88.325 41.5 0 
-87.925 41.5 0 
-87.525 41.5 0 
-90.142 42 0 
-89.8651 42 0 
-89.5882 42 0 
-89.3113 42 0 
-89.0344 42 0 
-88.7576 42 0 
-88.4807 42 0 
-88.2038 42 0 
-87.9269 42 0 
-87.65 42 0 
-90.65 42.508 0 
-90.3333 42.508 0 
-90.0167 42.508 0 
-89.7 42.508 0 
-89.3833 42.508 0 
-89.0667 42.508 0 
-88.75 42.508 0 
-88.4333 42.508 0 
-88.1167 42.508 0 
-87.8 42.508 0 
-89.3 37 0 
-89.2111 37 0 
-89.1222 37 0 
-89.0333 37 0 
-88.9444 37 0 
-88.8556 37 0 
-88.7667 37 0 
-88.6778 37 0 
-88.5889 37 0 
-88.5 37 0 
-89.5 37.5 0 
-89.3408 37.5 0 
-89.1816 37.5 0 
-89.0223 37.5 0 
-88.8631 37.5 0 
-88.7039 37.5 0 
-88.5447 37.5 0 
-88.3854 37.5 0 
-88.2262 37.5 0 
-88.067 37.5 0 
-90.05 38 0 
-89.825 38 0 
-89.6 38 0 
-89.375 38 0 
-89.15 38 0 
-88.925 38 0 
-88.7 38 0 
-88.475 38 0 
-88.25 38 0 
-88.025 38 0 
-90.267 38.5 0 
-89.9799 38.5 0 
-89.6928 38.5 0 
-89.4057 38.5 0 
-89.1186 38.5 0 
-88.8314 38.5 0 
-88.5443 38.5 0 
-88.2572 38.5 0 
-87.9701 38.5 0 
-87.683 38.5 0 
-90.683 39 0 
-90.3386 39 0 
-89.9941 39 0 
-89.6497 39 0 
-89.3052 39 0 
-88.9608 39 0 
-88.6163 39 0 
-88.2719 39 0 
-87.9274 39 0 
-87.583 39 0 
-91.067 39.5 0 
-90.6743 39.5 0 
-90.2817 39.5 0 
-89.889 39.5 0 
-89.4963 39.5 0 
-89.1037 39.5 0 
-88.711 39.5 0 
-88.3183 39.5 0 
-87.9257 39.5 0 
-87.533 39.5 0 
-91.467 40 0 
-91.0299 40 0 
-90.5928 40 0 
-90.1557 40 0 
-89.7186 40 0 
-89.2814 40 0 
-88.8443 40 0 
-88.4072 40 0 
-87.9701 40 0 
-87.533 40 0 
-91.367 40.5 0 
-90.9401 40.5 0 
-90.5132 40.5 0 
-90.0863 40.5 0 
-89.6594 40.5 0 
-89.2326 40.5 0 
-88.8057 40.5 0 
-88.3788 40.5 0 
-87.9519 40.5 0 
-87.525 40.5 0 
-90.933 41 0 
-90.5543 41 0 
-90.1757 41 0 
-89.797 41 0 
-89.4183 41 0 
-89.0397 41 0 
-88.661 41 0 
-88.2823 41 0 
-87.9037 41 0 
-87.525 41 0 
-91.125 41.5 0 
-90.725 41.5 0 
-90.325 41.5 0 
-89.925 41.5 0 
-89.525 41.5 0 
-89.125 41.5 0 
-88.725 41.5 0 
-88.325 41.5 0 
-87.925 41.5 0 
-87.525 41.5 0 
-90.142 42 0 
-89.8651 42 0 
-89.5882 42 0 
-89.3113 42 0 
-89.0344 42 0 
-88.7576 42 0 
-88.4807 42 0 
-88.2038 42 0 
-87.9269 42 0 
-87.65 42 0 
-90.65 42.508 0 
-90.3333 42.508 0 
-90.0167 42.508 0 
-89.7 42.508 0 
-89.3833 42.508 0 
-89.0667 42.508 0 
-88.75 42.508 0 
-88.4333 42.508 0 
-88.1167 42.508 0 
-87.8 42.508 0 
-89.3 37 0 
-89.2111 37 0 
-89.1222 37 0 
-89.0333 37 0 
-88.9444 37 0 
-88.8556 37 0 
-88.7667 37 0 
-88.6778 37 0 
-88.5889 37 0 
-88.5 37 0 
-89.5 37.5 0 
-89.3408 37.5 0 
-89.1816 37.5 0 
-89.0223 37.5 0 
-88.8631 37.5 0 
-88.7039 37.5 0 
-88.5447 37.5 0 
-88.3854 37.5 0 
-88.2262 37.5 0 
-88.067 37.5 0 
-90.05 38 0 
-89.825 38 0 
-89.6 38 0 
-89.375 38 0 
-89.15 38 0 
-88.925 38 0 
-88.7 38 0 
-88.475 38 0 
-88.25 38 0 
-88.025 38 0 
-90.267 38.5 0 
-89.9799 38.5 0 
-89.6928 38.5 0 
-89.4057 38.5 0 
-89.1186 38.5 0 
-88.8314 38.5 0 
-88.5443 38.5 0 
-88.2572 38.5 0 
-87.9701 38.5 0 
-87.683 38.5 0 
-90.683 39 0 
-90.3386 39 0 
-89.9941 39 0 
-89.6497 39 0 
-89.3052 39 0 
-88.9608 39 0 
-88.6163 39 0 
-88.2719 39 0 
-87.9274 39 0 
-87.583 39 0 
-91.067 39.5 0 
-90.6743 39.5 0 
-90.2817 39.5 0 
-89.889 39.5 0 
-89.4963 39.5 0 
-89.1037 39.5 0 
-88.711 39.5 0 
-88.3183 39.5 0 
-87.9257 39.5 0 
-87.533 39.5 0 
-91.467 40 0 
-91.0299 40 0 
-90.5928 40 0 
-90.1557 40 0 
-89.7186 40 0 
-89.2814 40 0 
-88.8443 40 0 
-88.4072 40 0 
-87.9701 40 0 
-87.533 40 0 
-91.367 40.5 0 
-90.9401 40.5 0 
-90.5132 40.5 0 
-90.0863 40.5 0 
-89.6594 40.5 0 
-89.2326 40.5 0 
-88.8057 40.5 0 
-88.3788 40.5 0 
-87.9519 40.5 0 
-87.525 40.5 0 
-90.933 41 0 
-90.5543 41 0 
-90.1757 41 0 
-89.797 41 0 
-89.4183 41 0 
-89.0397 41 0 
-88.661 41 0 
-88.2823 41 0 
-87.9037 41 0 
-87.525 41 0 
-91.125 41.5 0 
-90.725 41.5 0 
-90.325 41.5 0 
-89.925 41.5 0 
-89.525 41.5 0 
-89.125 41.5 0 
-88.725 41.5 0 
-88.325 41.5 0 
-87.925 41.5 0 
-87.525 41.5 0 
-90.142 42 0 
-89.8651 42 0 
-89.5882 42 0 
-89.3113 42 0 
-89.0344 42 0 
-88.7576 42 0 
-88.4807 42 0 
-88.2038 42 0 
-87.9269 42 0 
-87.65 42 0 
-90.65 42.508 0 
-90.3333 42.508 0 
-90.0167 42.508 0 
-89.7 42.508 0 
-89.3833 42.508 0 
-89.0667 42.508 0 
-88.75 42.508 0 
-88.4333 42.508 0 
-88.1167 42.508 0 
-87.8 42.508 0 
-89.3 37 0 
-89.2111 37 0 
-89.1222 37 0 
-89.0333 37 0 
-88.9444 37 0 
-88.8556 37 0 
-88.7667 37 0 
-88.6778 37 0 
-88.5889 37 0 
-88.5 37 0 
-89.5 37.5 0 
-89.3408 37.5 0 
-89.1816 37.5 0 
-89.0223 37.5 0 
-88.8631 37.5 0 
-88.7039 37.5 0 
-88.5447 37.5 0 
-88.3854 37.5 0 
-88.2262 37.5 0 
-88.067 37.5 0 
-90.05 38 0 
-89.825 38 0 
-89.6 38 0 
-89.375 38 0 
-89.15 38 0 
-88.925 38 0 
-88.7 38 0 
-88.475 38 0 
-88.25 38 0 
-88.025 38 0 
-90.267 38.5 0 
-89.9799 38.5 0 
-89.6928 38.5 0 
-89.4057 38.5 0 
-89.1186 38.5 0 
-88.8314 38.5 0 
-88.5443 38.5 0 
-88.2572 38.5 0 
-87.9701 38.5 0 
-87.683 38.5 0 
-90.683 39 0 
-90.3386 39 0 
-89.9941 39 0 
-89.6497 39 0 
-89.3052 39 0 
-88.9608 39 0 
-88.6163 39 0 
-88.2719 39 0 
-87.9274 39 0 
-87.583 39 0 
-91.067 39.5 0 
-90.6743 39.5 0 
-90.2817 39.5 0 
-89.889 39.5 0 
-89.4963 39.5 0 
-89.1037 39.5 0 
-88.711 39.5 0 
-88.3183 39.5 0 
-87.9257 39.5 0 
-87.533 39.5 0 
-91.467 40 0 
-91.0299 40 0 
-90.5928 40 0 
-90.1557 40 0 
-89.7186 40 0 
-89.2814 40 0 
-88.8443 40 0 
-88.4072 40 0 
-87.9701 40 0 
-87.533 40 0 
-91.367 40.5 0 
-90.9401 40.5 0 
-90.5132 40.5 0 
-90.0863 40.5 0 
-89.6594 40.5 0 
-89.2326 40.5 0 
-88.8057 40.5 0 
-88.3788 40.5 0 
-87.9519 40.5 0 
-87.525 40.5 0 
-90.933 41 0 
-90.5543 41 0 
-90.1757 41 0 
-89.797 41 0 
-89.4183 41 0 
-89.0397 41 0 
-88.661 41 0 
-88.2823 41 0 
-87.9037 41 0 
-87.525 41 0 
-91.125 41.5 0 
-90.725 41.5 0 
-90.325 41.5 0 
-89.925 41.5 0 
-89.525 41.5 0 
-89.125 41.5 0 
-88.725 41.5 0 
-88.325 41.5 0 
-87.925 41.5 0 
-87.525 41.5 0 
-90.142 42 0 
-89.8651 42 0 
-89.5882 42 0 
-89.3113 42 0 
-89.0344 42 0 
-88.7576 42 0 
-88.4807 42 0 
-88.2038 42 0 
-87.9269 42 0 
-87.65 42 0 
-90.65 42.508 0 
-90.3333 42.508 0 
-90.0167 42.508 0 
-89.7 42.508 0 
-89.3833 42.508 0 
-89.0667 42.508 0 
-88.75 42.508 0 
-88.4333 42.508 0 
-88.1167 42.508 0 
-87.8 42.508 0 
-89.3 37 0 
-89.2111 37 0 
-89.1222 37 0 
-89.0333 37 0 
-88.9444 37 0 
-88.8556 37 0 
-88.7667 37 0 
-88.6778 37 0 
-88.5889 37 0 
-88.5 37 0 
-89.5 37.5 0 
-89.3408 37.5 0 
-89.1816 37.5 0 
-89.0223 37.5 0 
-88.8631 37.5 0 
-88.7039 37.5 0 
-88.5447 37.5 0 
-88.3854 37.5 0 
-88.2262 37.5 0 
-88.067 37.5 0 
-90.05 38 0 
-89.825 38 0 
-89.6 38 0 
-89.375 38 0 
-89.15 38 0 
-88.925 38 0 
-88.7 38 0 
-88.475 38 0 
-88.25 38 0 
-88.025 38 0 
-90.267 38.5 0 
-89.9799 38.5 0 
[...]
POINT_DATA 3720
VECTORS WindVector float
0.049518 -0.0497214 0 
0.0489192 -0.048635 0 
0.0481852 -0.0472727 0 
0.0473473 -0.045696 0 
0.0464728 -0.044035 0 
0.0456595 -0.0424784 0 
0.0450145 -0.0412318 0 
0.0446206 -0.0404528 0 
0.0445079 -0.0401964 0 
0.0446482 -0.0404068 0 
0.0535666 -0.0580699 0 
0.0547941 -0.0604802 0 
0.054283 -0.0595651 0 
0.0496526 -0.0508612 0 
0.0427605 -0.0374655 0 
0.0381139 -0.0282028 0 
0.0396558 -0.0312298 0 
0.0425755 -0.0367664 0 
0.0449003 -0.0409778 0 
0.0464556 -0.0436988 0 
0.0520385 -0.054731 0 
0.0519408 -0.0551155 0 
0.0517819 -0.0553534 0 
0.0514298 -0.0555355 0 
0.0476045 -0.0507618 0 
0.0414751 -0.0430876 0 
0.0444066 -0.0445305 0 
0.0476643 -0.0457124 0 
0.0488918 -0.0466196 0 
0.048938 -0.0476949 0 
0.0524826 -0.0553658 0 
0.0533703 -0.0594804 0 
0.0528466 -0.0580839 0 
0.050554 -0.0538453 0 
0.0483735 -0.0515247 0 
0.0480142 -0.0499858 0 
0.0510198 -0.0479439 0 
0.0505743 -0.0482972 0 
0.0469082 -0.0515697 0 
0.0482795 -0.0514712 0 
0.0504466 -0.0471605 0 
0.0513616 -0.0498737 0 
0.0521417 -0.0524583 0 
0.0522272 -0.0533789 0 
0.0516961 -0.0563287 0 
0.051428 -0.0637354 0 
0.0506971 -0.0564969 0 
0.0479701 -0.053564 0 
0.0473253 -0.0533752 0 
0.0497195 -0.0531052 0 
0.0462519 -0.038988 0 
0.0460055 -0.0388349 0 
0.0491405 -0.0436226 0 
0.0523728 -0.0474329 0 
0.0540057 -0.0494691 0 
0.0534668 -0.0540297 0 
0.0532497 -0.0572337 0 
0.0527953 -0.0578878 0 
0.0524031 -0.0560173 0 
0.0528957 -0.0548676 0 
0.0502853 -0.0435397 0 
0.0455261 -0.0375011 0 
0.0454066 -0.0374568 0 
0.037749 -0.0293171 0 
0.0509755 -0.0435781 0 
0.0562807 -0.0509203 0 
0.0561742 -0.0591822 0 
0.0582958 -0.0854584 0 
0.0519279 -0.0545835 0 
0.055181 -0.0559625 0 
0.0547671 -0.0486712 0 
0.0560184 -0.050577 0 
0.0536109 -0.0468342 0 
0.0503313 -0.0406155 0 
0.0659998 -0.0507344 0 
0.0673813 -0.0536742 0 
0.0608134 -0.057298 0 
0.0596194 -0.0600527 0 
0.0604582 -0.0583053 0 
0.0597208 -0.0570577 0 
0.0633466 -0.0610002 0 
0.0634126 -0.0607321 0 
0.0600268 -0.0505637 0 
0.0629474 -0.0501697 0 
0.0697307 -0.0532627 0 
0.0661344 -0.0542547 0 
0.0666158 -0.0575017 0 
0.0766623 -0.0638355 0 
0.0722619 -0.0617274 0 
0.064511 -0.0578615 0 
0.059838 -0.0527347 0 
0.0607756 -0.0530966 0 
0.0609192 -0.0500526 0 
0.0621375 -0.0479906 0 
0.0643859 -0.0494242 0 
0.0676586 -0.0540116 0 
0.0684247 -0.0564866 0 
0.0655517 -0.0563094 0 
0.0656995 -0.0569211 0 
0.0639658 -0.0562494 0 
0.0613221 -0.0398268 0 
0.061637 -0.0335452 0 
0.0622554 -0.0330419 0 
0.0656324 -0.0445755 0 
0.0717394 -0.0561669 0 
0.072525 -0.058379 0 
0.0618544 -0.0543717 0 
0.0612422 -0.0541424 0 
0.0627361 -0.0544952 0 
0.0629291 -0.0546134 0 
0.0603607 -0.0442578 0 
0.0609295 -0.0400153 0 
0.061259 -0.0329554 0 
0.061243 -0.0270679 0 
0.0623687 -0.0342797 0 
0.0645696 -0.0458541 0 
0.0651236 -0.0513181 0 
0.063988 -0.0528912 0 
0.0631054 -0.053283 0 
0.06265 -0.0534147 0 
-0.0151857 -0.0538638 0 
-0.0159542 -0.052363 0 
-0.0166921 -0.0504801 0 
-0.0174265 -0.0482885 0 
-0.0181498 -0.0459625 0 
-0.0187934 -0.0437735 0 
-0.0192303 -0.0420343 0 
-0.0193181 -0.0410003 0 
-0.0189644 -0.0407753 0 
-0.0181676 -0.0412861 0 
-0.0203186 -0.0640434 0 
-0.024242 -0.0662546 0 
-0.0251612 -0.0649403 0 
-0.0236678 -0.0543008 0 
-0.0257602 -0.035815 0 
-0.0306379 -0.0213733 0 
-0.0278573 -0.026611 0 
-0.0216008 -0.0365682 0 
-0.0158223 -0.0443107 0 
-0.0114171 -0.0492387 0 
-0.00554386 -0.0624676 0 
-0.00824761 -0.063224 0 
-0.0121888 -0.0633685 0 
-0.0168327 -0.0636753 0 
-0.0176125 -0.0606495 0 
-0.0167244 -0.0559317 0 
-0.0137792 -0.0564284 0 
-0.00942529 -0.0589486 0 
-0.0063708 -0.0609678 0 
-0.00385017 -0.0611285 0 
-0.00240903 -0.0634666 0 
-0.00842193 -0.0715914 0 
-0.00696169 -0.0693087 0 
-0.00323594 -0.0637472 0 
-0.00266448 -0.0630327 0 
-0.00273395 -0.0637295 0 
-0.00295137 -0.0682276 0 
-0.00139408 -0.0699788 0 
0.00417692 -0.0689948 0 
0.00462439 -0.0656443 0 
0.0133678 -0.0456325 0 
0.00740469 -0.0521002 0 
0.00259423 -0.0578423 0 
0.002789 -0.0600285 0 
0.00850678 -0.0658838 0 
0.0182363 -0.0783659 0 
0.0102664 -0.0690619 0 
0.00783093 -0.0681133 0 
0.00832063 -0.0679348 0 
0.00948882 -0.0642318 0 
0.0302723 -0.0263283 0 
0.0286473 -0.0271838 0 
0.0144872 -0.0410092 0 
0.0021434 -0.0487627 0 
-0.00273235 -0.0517705 0 
0.00987812 -0.0590159 0 
0.0148556 -0.0638435 0 
0.0170972 -0.0647911 0 
0.0170281 -0.0627753 0 
0.0165444 -0.0608678 0 
0.0268389 -0.0337025 0 
0.0340729 -0.0222823 0 
0.0284101 -0.0264718 0 
0.0109617 -0.0328415 0 
0.00728641 -0.0435901 0 
0.0120507 -0.0501887 0 
0.0199764 -0.0616155 0 
0.0234706 -0.0948401 0 
0.0244809 -0.0586538 0 
0.0229719 -0.0584393 0 
0.0263589 -0.039265 0 
0.0270226 -0.0402424 0 
0.023442 -0.0392716 0 
0.0193499 -0.0356352 0 
0.0245902 -0.0386707 0 
0.0237485 -0.0454108 0 
0.0263213 -0.0543793 0 
0.0293105 -0.0591864 0 
0.0308938 -0.0561754 0 
0.0292408 -0.0550743 0 
0.0296853 -0.0479323 0 
0.0295905 -0.0476787 0 
0.02699 -0.0396654 0 
0.0279378 -0.0363232 0 
0.0276923 -0.0414325 0 
0.032198 -0.0448461 0 
0.0379085 -0.0484142 0 
0.0456337 -0.0504338 0 
0.0426472 -0.0505886 0 
0.0364118 -0.0509778 0 
0.0285321 -0.0429326 0 
0.0295141 -0.0426514 0 
0.0307986 -0.0398199 0 
0.033318 -0.0374108 0 
0.0375912 -0.0381625 0 
0.0473899 -0.0408839 0 
0.0543982 -0.0417543 0 
0.0547018 -0.0415439 0 
0.0483307 -0.044591 0 
0.0418308 -0.0468385 0 
0.0400394 -0.0294014 0 
0.0451351 -0.022464 0 
0.0474879 -0.0214882 0 
0.0504246 -0.0315022 0 
0.0602514 -0.0397295 0 
0.0640631 -0.0406901 0 
0.0697172 -0.0345014 0 
0.068296 -0.0347761 0 
0.0572505 -0.0391359 0 
0.0489098 -0.0424091 0 
0.0357485 -0.0350269 0 
0.0398841 -0.0300442 0 
0.0452186 -0.0221291 0 
0.048848 -0.0157116 0 
0.0484359 -0.0225977 0 
0.0502764 -0.0329711 0 
0.0533883 -0.037222 0 
0.0550306 -0.0382269 0 
0.0534385 -0.0392445 0 
0.0491021 -0.0410331 0 
0.0130146 -0.0350836 0 
0.0134526 -0.0347878 0 
0.0140886 -0.0342181 0 
0.0148714 -0.0334378 0 
0.0157172 -0.0325513 0 
0.0165266 -0.0316858 0 
0.0172116 -0.0309604 0 
0.0177233 -0.0304531 0 
0.0180637 -0.0301804 0 
0.018275 -0.0301045 0 
0.00464623 -0.0442972 0 
0.00190235 -0.0488392 0 
0.00223114 -0.0488306 0 
0.0084529 -0.0412808 0 
0.0167634 -0.0311167 0 
0.0215055 -0.0250909 0 
0.020341 -0.0267572 0 
0.0186779 -0.0295134 0 
0.0179469 -0.0313065 0 
0.0179848 -0.0321659 0 
0.00347344 -0.024719 0 
0.00310718 -0.0282919 0 
0.00514065 -0.0344413 0 
0.00590344 -0.0408438 0 
0.00822611 -0.0411399 0 
0.0112761 -0.038585 0 
0.0123316 -0.0375498 0 
0.0123131 -0.0379144 0 
0.0127569 -0.0383456 0 
0.015201 -0.0373267 0 
-0.00184642 -0.0178197 0 
-0.0243863 -0.0179599 0 
-0.0155105 -0.0195299 0 
0.0104055 -0.0259853 0 
0.0183992 -0.0302372 0 
0.0179184 -0.033624 0 
0.00938056 -0.0416973 0 
0.00910929 -0.0443865 0 
0.0186772 -0.0423394 0 
0.0209013 -0.0381618 0 
0.0281714 -0.0059617 0 
0.0223861 -0.0102611 0 
0.0170025 -0.0139485 0 
0.0222339 -0.0166001 0 
0.0311729 -0.0201011 0 
0.0401004 -0.0193853 0 
0.0301467 -0.0274144 0 
0.0242513 -0.0374074 0 
0.0241059 -0.0390569 0 
0.0261229 -0.034536 0 
0.0370421 0.00981688 0 
0.0372099 0.00935489 0 
0.0396123 -0.000182887 0 
0.0499331 -0.00497134 0 
0.0562981 -0.00685176 0 
0.0413006 -0.0164969 0 
0.0374741 -0.0241527 0 
0.036394 -0.0288849 0 
0.0344234 -0.0296997 0 
0.0331629 -0.0291985 0 
0.0408271 0.0062287 0 
0.0391108 0.0139387 0 
0.0407332 0.0117478 0 
0.0444735 0.0102254 0 
0.0514536 0.000389901 0 
0.0487089 -0.00783445 0 
0.0437251 -0.0223979 0 
0.0525978 -0.0446062 0 
0.0389688 -0.0275725 0 
0.0378735 -0.0273473 0 
0.0476903 0.00705941 0 
0.0524838 0.0106329 0 
0.0509944 0.00973432 0 
0.0474097 0.00895421 0 
0.0512589 0.00798629 0 
0.0502188 -0.000922196 0 
0.0450406 -0.0182619 0 
0.0433348 -0.0289593 0 
0.0420308 -0.0297901 0 
0.0405107 -0.0276067 0 
0.0653321 0.016333 0 
0.0651999 0.0162835 0 
0.0513096 0.00803838 0 
0.0496315 0.00848714 0 
0.051199 0.00382972 0 
0.047501 -0.00734909 0 
0.0452973 -0.0218873 0 
0.0467103 -0.0413895 0 
0.0452925 -0.0366265 0 
0.0423388 -0.0284039 0 
0.0521665 0.00686088 0 
0.0534425 0.0080976 0 
0.0495117 0.00588775 0 
0.0463328 0.0036109 0 
0.0458516 -0.000132836 0 
0.047053 -0.0065115 0 
0.0466877 -0.0138735 0 
0.0432838 -0.0258694 0 
0.0429822 -0.027509 0 
0.0421153 -0.0253771 0 
0.0405243 0.00739194 0 
0.0368272 0.0116272 0 
0.0363679 0.0116103 0 
0.0421534 0.0017981 0 
0.0489523 -0.00490103 0 
0.0497617 -0.00805435 0 
0.0405747 -0.0308463 0 
0.0400551 -0.0318357 0 
0.0414203 -0.0260077 0 
0.041666 -0.0233518 0 
0.0419644 0.00271289 0 
0.0396906 0.00570732 0 
0.0360706 0.0113461 0 
0.0331739 0.0164109 0 
0.0364468 0.00931811 0 
0.0415402 -0.00275655 0 
0.0432057 -0.011151 0 
0.0425547 -0.0174371 0 
0.0419147 -0.0200263 0 
0.0416127 -0.0200387 0 
0.0255258 0.00122921 0 
0.0257731 0.000231942 0 
0.0259529 -0.000670814 0 
0.026074 -0.00153192 0 
0.0261491 -0.00236396 0 
0.0261933 -0.00309785 0 
0.0262234 -0.00357987 0 
0.026255 -0.00362736 0 
0.026299 -0.003117 0 
0.0263594 -0.00204424 0 
0.026497 -0.00708706 0 
0.0281175 -0.0140847 0 
0.0285242 -0.0154356 0 
0.027868 -0.0112982 0 
0.0267233 -0.0121901 0 
0.0257015 -0.0184004 0 
0.0261455 -0.0145261 0 
0.0270535 -0.00578884 0 
0.0277794 0.00209819 0 
0.0281921 0.00780034 0 
0.0083194 0.026587 0 
0.0114471 0.0215005 0 
0.0188146 0.0114397 0 
0.0256693 0.00120007 0 
0.0299675 0.00142781 0 
0.0334728 0.0068985 0 
0.0321382 0.00974469 0 
0.0322402 0.0162495 0 
0.0326388 0.0200529 0 
0.0320141 0.0205398 0 
-0.00203849 0.0379328 0 
-0.0188388 0.0455411 0 
-0.0106887 0.0411594 0 
0.0155563 0.0269759 0 
0.0271261 0.0215383 0 
0.0312022 0.0218767 0 
0.0356361 0.0294353 0 
0.0370277 0.0294997 0 
0.0355762 0.0222268 0 
0.0329922 0.0232793 0 
0.0127357 0.0359313 0 
0.00994561 0.0369066 0 
0.00751745 0.0379774 0 
0.0130919 0.0363892 0 
0.0242135 0.0333097 0 
0.0327574 0.0342786 0 
0.030922 0.030109 0 
0.0336342 0.0245474 0 
0.034065 0.023246 0 
0.0312712 0.0263985 0 
0.0155191 0.0362176 0 
0.0156386 0.0362493 0 
0.0155519 0.0379294 0 
0.0184442 0.0426569 0 
0.0208398 0.0452733 0 
0.0242362 0.0376521 0 
0.0286691 0.0350383 0 
0.0311867 0.0337045 0 
0.0304168 0.0323389 0 
0.0287627 0.0322669 0 
0.013572 0.0388468 0 
0.0152704 0.0368547 0 
0.0151031 0.0368427 0 
0.0153177 0.033042 0 
0.0174929 0.0415399 0 
0.0198553 0.042264 0 
0.0281981 0.0396775 0 
0.0493069 0.0461406 0 
0.0308119 0.0329589 0 
0.0274643 0.0364015 0 
0.00955717 0.0436809 0 
0.00680647 0.0465712 0 
0.00879143 0.0440581 0 
0.0123554 0.0395889 0 
0.0111843 0.0457609 0 
0.0146949 0.0458854 0 
0.0225778 0.0434459 0 
0.0276622 0.0430845 0 
0.0257492 0.0437335 0 
0.023964 0.0425152 0 
-0.00224613 0.0563461 0 
-0.00203187 0.0561916 0 
0.00830872 0.0462528 0 
0.0098755 0.0454137 0 
0.0114563 0.0474058 0 
0.0138761 0.0472329 0 
0.016752 0.0507008 0 
0.0195471 0.063603 0 
0.0193799 0.0583986 0 
0.0192912 0.0489651 0 
0.00617566 0.0478744 0 
0.00529096 0.0488818 0 
0.00763377 0.0467291 0 
0.00939967 0.0454813 0 
0.00981145 0.0465354 0 
0.00880637 0.0499241 0 
0.00721384 0.0526145 0 
0.00661194 0.0540197 0 
0.0109972 0.0530262 0 
0.0141179 0.0495735 0 
0.00774729 0.0436957 0 
0.00655226 0.0426035 0 
0.00615949 0.0429002 0 
0.00666792 0.0472367 0 
0.00554297 0.0530699 0 
0.00423565 0.0547317 0 
-0.00419687 0.0559913 0 
-0.00366561 0.05563 0 
0.00339154 0.0527194 0 
0.00839133 0.0502557 0 
0.00917775 0.0437119 0 
0.0081957 0.0432813 0 
0.00660711 0.0422284 0 
0.00531947 0.0411919 0 
0.00610691 0.0433635 0 
0.00655772 0.0474789 0 
0.00562163 0.0500663 0 
0.0044834 0.0511138 0 
0.00512791 0.0508038 0 
0.00747076 0.0494932 0 
-0.00377824 0.0306331 0 
-0.00352133 0.0308606 0 
-0.00323588 0.0311017 0 
-0.00293106 0.031351 0 
-0.00262628 0.031596 0 
-0.00234908 0.0318198 0 
-0.00212826 0.0320063 0 
-0.00198399 0.0321475 0 
-0.00192044 0.0322463 0 
-0.00192551 0.032314 0 
-0.00530565 0.0295728 0 
-0.00522897 0.0298278 0 
-0.00492087 0.0300806 0 
-0.00350081 0.0309554 0 
-0.00147154 0.0322844 0 
-0.000173028 0.0330455 0 
-0.00059889 0.0329465 0 
-0.00141922 0.0329984 0 
-0.00205782 0.0332315 0 
-0.00242054 0.0334375 0 
-0.0119533 0.0228247 0 
-0.0108879 0.0239402 0 
-0.0079823 0.026724 0 
-0.00514385 0.0290545 0 
-0.00190594 0.0301289 0 
0.00207098 0.0303912 0 
-0.000584774 0.0324236 0 
-0.00346993 0.0358563 0 
-0.00429058 0.0371227 0 
-0.00381499 0.0363 0 
-0.0165933 0.0183467 0 
-0.0243977 0.0105982 0 
-0.0209267 0.0142978 0 
-0.0099953 0.0261684 0 
-0.00532536 0.0313269 0 
-0.00427982 0.0340811 0 
-0.00648778 0.0407605 0 
-0.00593061 0.0412209 0 
-0.00200404 0.0355298 0 
-0.0020565 0.0347653 0 
-0.00950126 0.0250804 0 
-0.0115042 0.0236357 0 
-0.013672 0.02245 0 
-0.0125046 0.0251664 0 
-0.0098467 0.0313364 0 
-0.0115361 0.0370381 0 
-0.00660301 0.0349359 0 
-0.00227297 0.0342971 0 
-0.00110351 0.0338758 0 
-0.00126049 0.0337652 0 
-0.0103344 0.0257352 0 
-0.0109013 0.0253047 0 
-0.0099867 0.0250517 0 
-0.0155101 0.0254243 0 
-0.0189362 0.0261695 0 
-0.00848103 0.0306355 0 
-0.00421286 0.0333322 0 
-0.00205751 0.0339254 0 
-0.0011543 0.0332853 0 
-0.00023166 0.0330864 0 
-0.0053725 0.0276313 0 
-0.0104172 0.0258925 0 
-0.00941585 0.0249757 0 
-0.00940133 0.0188459 0 
-0.0109678 0.0246059 0 
-0.00661036 0.0286543 0 
-0.00116525 0.0336074 0 
0.0019028 0.0473756 0 
-0.00168426 0.0306369 0 
0.00157184 0.0326549 0 
-0.000126249 0.0305563 0 
0.00124978 0.0320943 0 
0.000418229 0.0291936 0 
-0.000102843 0.0240872 0 
0.00610601 0.0288647 0 
0.00349856 0.0312938 0 
0.00412512 0.0329476 0 
0.0049571 0.0344934 0 
0.00637858 0.033897 0 
0.00637926 0.0334403 0 
0.00810755 0.0392205 0 
0.00830204 0.0389172 0 
0.0069937 0.0299293 0 
0.00987455 0.0278726 0 
0.00747794 0.0308778 0 
0.0096743 0.0312251 0 
0.0134818 0.0335263 0 
0.0208106 0.0393219 0 
0.0178892 0.0374818 0 
0.0124221 0.0343172 0 
0.00664049 0.032943 0 
0.00793518 0.03323 0 
0.00949337 0.0308746 0 
0.011958 0.0290411 0 
0.0146716 0.0288571 0 
0.0202929 0.0288508 0 
0.0242624 0.0296502 0 
0.0239107 0.0325687 0 
0.0201299 0.0335497 0 
0.0159413 0.0331404 0 
0.0186101 0.0273353 0 
0.0240416 0.0256159 0 
0.0258823 0.0252598 0 
0.0248508 0.0267825 0 
0.0289377 0.026909 0 
0.0307968 0.0271757 0 
0.0322491 0.0320036 0 
0.0312998 0.032361 0 
0.0250844 0.031964 0 
0.0202005 0.0319573 0 
0.014078 0.028609 0 
0.0183332 0.0273875 0 
0.0241973 0.0255609 0 
0.0284671 0.0241393 0 
0.0261322 0.0255218 0 
0.0240744 0.0276436 0 
0.0243629 0.0290271 0 
0.0245391 0.0302094 0 
0.023242 0.0308581 0 
0.0205352 0.0311212 0 
-0.00313878 0.0375734 0 
-0.00360187 0.0370224 0 
-0.00412497 0.036334 0 
-0.00470878 0.0355437 0 
-0.00532276 0.0347188 0 
-0.00589353 0.033949 0 
-0.00631347 0.0333236 0 
-0.00647546 0.032904 0 
-0.00631743 0.0327039 0 
-0.00584645 0.0326922 0 
-0.00396669 0.0424268 0 
-0.0048976 0.0440793 0 
-0.0053262 0.0436394 0 
-0.006199 0.0387111 0 
-0.0100178 0.0319813 0 
-0.0146444 0.0280122 0 
-0.0124469 0.0290799 0 
-0.0077836 0.0308284 0 
-0.00372462 0.0320044 0 
-0.000830609 0.0326979 0 
-0.00450581 0.0403414 0 
-0.00458258 0.0402967 0 
-0.00350694 0.0401238 0 
-0.00275399 0.0399966 0 
-0.00122303 0.0363826 0 
0.000921731 0.0306835 0 
0.0012884 0.0317084 0 
0.00356118 0.031993 0 
0.00543256 0.0318489 0 
0.00613454 0.0319107 0 
-0.0068554 0.0412753 0 
-0.0158506 0.0437525 0 
-0.0124147 0.0424634 0 
-0.00224093 0.0376725 0 
0.0014658 0.034327 0 
0.00384019 0.0326477 0 
0.00916598 0.0312183 0 
0.0113577 0.0296293 0 
0.0120947 0.0274742 0 
0.0105918 0.0301439 0 
0.00646816 0.0378358 0 
0.00249419 0.0389952 0 
-0.00121064 0.0398595 0 
-0.000415749 0.0390144 0 
0.00171969 0.036185 0 
-0.000403723 0.0330435 0 
0.00557056 0.0334416 0 
0.0113702 0.0296152 0 
0.0126093 0.0287642 0 
0.0116021 0.0323344 0 
0.0141513 0.0333187 0 
0.0135763 0.0332209 0 
0.00915949 0.0369646 0 
0.00282253 0.0394542 0 
-0.000250952 0.0403747 0 
0.00608009 0.0385385 0 
0.0105964 0.0380578 0 
0.01403 0.0375401 0 
0.0139157 0.0364213 0 
0.0132339 0.0367613 0 
0.0148813 0.0378488 0 
0.0160526 0.0327535 0 
0.0155163 0.0335973 0 
0.0156328 0.0316541 0 
0.00794538 0.0387502 0 
0.00864053 0.0413912 0 
0.0155966 0.0420819 0 
0.0315422 0.0531231 0 
0.0158953 0.0350645 0 
0.0154626 0.0393501 0 
0.0177799 0.0435717 0 
0.0203468 0.0461109 0 
0.0191184 0.0434963 0 
0.0172475 0.0385426 0 
0.0149551 0.0456315 0 
0.0121458 0.047032 0 
0.0164891 0.0448412 0 
0.0198364 0.0446138 0 
0.0195142 0.0447484 0 
0.0176751 0.0440489 0 
0.0271589 0.0567243 0 
0.0270374 0.0565103 0 
0.0191694 0.0459661 0 
0.0183974 0.0443923 0 
0.0133629 0.0481648 0 
0.0148688 0.0473501 0 
0.0190461 0.0499331 0 
0.02866 0.0613676 0 
0.0254046 0.0568458 0 
0.0195517 0.0489125 0 
0.0197835 0.0489121 0 
0.020461 0.0498473 0 
0.0182004 0.0478628 0 
0.0161599 0.046698 0 
0.0150738 0.0469877 0 
0.0146658 0.0476576 0 
0.0153179 0.0483922 0 
0.017549 0.0496017 0 
0.0188073 0.0501709 0 
0.0178586 0.0483509 0 
0.015061 0.0482954 0 
0.0142724 0.0494372 0 
0.0140284 0.0497225 0 
0.0141487 0.0486481 0 
0.0137099 0.048336 0 
0.0136909 0.0483506 0 
0.0153456 0.0478954 0 
0.0155734 0.0478716 0 
0.0159473 0.0478322 0 
0.0161568 0.0474782 0 
0.0151534 0.0470227 0 
0.0147049 0.0479566 0 
0.0141222 0.0493989 0 
0.0137337 0.0505485 0 
0.0139694 0.0495642 0 
0.0143079 0.0482448 0 
0.0145991 0.0477541 0 
0.0149636 0.0475356 0 
0.0152141 0.0473193 0 
0.0153278 0.0469807 0 
0.0118048 0.0388439 0 
0.0117933 0.0386013 0 
0.0116782 0.0383901 0 
0.0114804 0.0381994 0 
0.0112321 0.0380263 0 
0.0109682 0.0378852 0 
0.0107151 0.0378092 0 
0.0104813 0.0378393 0 
0.010257 0.0380055 0 
0.010022 0.038313 0 
0.0154861 0.0366137 0 
0.0172149 0.0352201 0 
0.017392 0.0348905 0 
0.0153178 0.0354853 0 
0.0120985 0.0354221 0 
0.0100814 0.0344758 0 
0.0104075 0.0352337 0 
0.0103216 0.0372237 0 
0.00949586 0.0392998 0 
0.00842126 0.0409708 0 
0.00595923 0.0429142 0 
0.00779308 0.0415676 0 
0.0115713 0.0393689 0 
0.0162724 0.0366058 0 
0.0220605 0.0336532 0 
0.0300369 0.0297626 0 
0.0208364 0.0352702 0 
0.0109377 0.0421608 0 
0.0069505 0.0449179 0 
0.00532808 0.0450987 0 
0.00245482 0.0447339 0 
3.4007e-005 0.0432608 0 
0.00132837 0.0433573 0 
0.00620543 0.0426842 0 
0.00978513 0.0410673 0 
0.00979647 0.0419176 0 
0.00399802 0.0491274 0 
0.00150574 0.049517 0 
-0.0006542 0.0441652 0 
0.00035271 0.0451639 0 
0.00667697 0.0480977 0 
0.00382089 0.0476206 0 
0.00144351 0.0471961 0 
0.000144752 0.0475281 0 
-0.00232872 0.0476829 0 
-0.00932113 0.0479531 0 
-0.00267748 0.0474054 0 
-0.00173712 0.0451144 0 
-0.00208681 0.0444841 0 
-0.00124509 0.0468727 0 
0.016603 0.0476309 0 
0.0158647 0.0473055 0 
0.00571939 0.0490402 0 
-0.00352509 0.0521605 0 
-0.00772834 0.0540334 0 
-0.00388063 0.0516082 0 
-0.0035802 0.0519674 0 
-0.00395221 0.0519946 0 
-0.00386463 0.0505313 0 
-0.00318342 0.0505478 0 
0.0112347 0.0516865 0 
0.0188988 0.0479032 0 
0.0154545 0.0477126 0 
0.0105523 0.0423177 0 
-0.00131443 0.0511756 0 
-0.00434137 0.0543217 0 
-0.00463096 0.0567256 0 
-0.00305601 0.0760881 0 
-0.0080013 0.0479235 0 
-0.00540027 0.0527824 0 
0.00795909 0.057674 0 
0.00866968 0.0605781 0 
0.00686883 0.0569051 0 
0.00349471 0.0501627 0 
-0.00516121 0.0562309 0 
-0.00579723 0.0581066 0 
-0.00575443 0.0584736 0 
-0.00696239 0.0580522 0 
-0.00737893 0.0570739 0 
-0.00650917 0.0570002 0 
0.00872602 0.0725823 0 
0.00823438 0.0722625 0 
8.51238e-005 0.0593417 0 
-0.00489906 0.0565872 0 
-0.00660477 0.0595487 0 
-0.00688946 0.0616195 0 
-0.00801378 0.0639248 0 
-0.00847208 0.0688593 0 
-0.00843929 0.0663761 0 
-0.00787012 0.0617025 0 
0.0034492 0.0636261 0 
0.00285927 0.0647255 0 
-0.000544046 0.0625165 0 
-0.00426036 0.0616204 0 
-0.00674845 0.0641193 0 
-0.00925719 0.0715947 0 
-0.0121477 0.074295 0 
-0.0155914 0.0680363 0 
-0.0128072 0.065769 0 
-0.0102037 0.0633864 0 
-0.00650716 0.0636019 0 
-0.00905734 0.0647501 0 
-0.00999964 0.0659822 0 
-0.0101139 0.0711278 0 
-0.0111004 0.0823979 0 
-0.0126065 0.0843601 0 
-0.0248146 0.0683279 0 
-0.0246865 0.0669242 0 
-0.0179997 0.0665125 0 
-0.013634 0.0650057 0 
-0.00434595 0.0622307 0 
-0.00652888 0.0633286 0 
-0.00910618 0.0645306 0 
-0.0107556 0.0651853 0 
-0.0104271 0.0664751 0 
-0.0109309 0.0696092 0 