# vtk DataFile Version 3.0
Autogenerated from december.txt by weatherdisplay
ASCII
DATASET STRUCTURED_GRID
DIMENSIONS 10 12 31
POINTS 3720 float
-89.3 37 0 
-89.2111 37 0 
-89.1222 37 0 
-89.0333 37 0 
-88.9444 37 0 
-88.8556 37 0 
-88.7667 37 0 
-88.6778 37 0 
-88.5889 37 0 
-88.5 37 0 
-89.5 37.5 0 
-89.3408 37.5 0 
-89.1816 37.5 0 
-89.0223 37.5 0 
-88.8631 37.5 0 
-88.7039 37.5 0 
-88.5447 37.5 0 
-88.3854 37.5 0 
-88.2262 37.5 0 
-88.067 37.5 0 
-90.05 38 0 
-89.825 38 0 
-89.6 38 0 
-89.375 38 0 
-89.15 38 0 
-88.925 38 0 
-88.7 38 0 
-88.475 38 0 
-88.25 38 0 
-88.025 38 0 
-90.267 38.5 0 
-89.9799 38.5 0 
-89.6928 38.5 0 
-89.4057 38.5 0 
-89.1186 38.5 0 
-88.8314 38.5 0 
-88.5443 38.5 0 
-88.2572 38.5 0 
-87.9701 38.5 0 
-87.683 38.5 0 
-90.683 39 0 
-90.3386 39 0 
-89.9941 39 0 
-89.6497 39 0 
-89.3052 39 0 
-88.9608 39 0 
-88.6163 39 0 
-88.2719 39 0 
-87.9274 39 0 
-87.583 39 0 
-91.067 39.5 0 
-90.6743 39.5 0 
-90.2817 39.5 0 
-89.889 39.5 0 
-89.4963 39.5 0 
-89.1037 39.5 0 
-88.711 39.5 0 
-88.3183 39.5 0 
-87.9257 39.5 0 
-87.533 39.5 0 
-91.467 40 0 
-91.0299 40 0 
-90.5928 40 0 
-90.1557 40 0 
-89.7186 40 0 
-89.2814 40 0 
-88.8443 40 0 
-88.4072 40 0 
-87.9701 40 0 
-87.533 40 0 
-91.367 40.5 0 
-90.9401 40.5 0 
-90.5132 40.5 0 
-90.0863 40.5 0 
-89.6594 40.5 0 
-89.2326 40.5 0 
-88.8057 40.5 0 
-88.3788 40.5 0 
-87.9519 40.5 0 
-87.525 40.5 0 
-90.933 41 0 
-90.5543 41 0 
-90.1757 41 0 
-89.797 41 0 
-89.4183 41 0 
-89.0397 41 0 
-88.661 41 0 
-88.2823 41 0 
-87.9037 41 0 
-87.525 41 0 
-91.125 41.5 0 
-90.725 41.5 0 
-90.325 41.5 0 
-89.925 41.5 0 
-89.525 41.5 0 
-89.125 41.5 0 
-88.725 41.5 0 
-88.325 41.5 0 
-87.925 41.5 0 
-87.525 41.5 0 
-90.142 42 0 
-89.8651 42 0 
-89.5882 42 0 
-89.3113 42 0 
-89.0344 42 0 
-88.7576 42 0 
-88.4807 42 0 
-88.2038 42 0 
-87.9269 42 0 
-87.65 42 0 
-90.65 42.508 0 
-90.3333 42.508 0 
-90.0167 42.508 0 
-89.7 42.508 0 
-89.3833 42.508 0 
-89.0667 42.508 0 
-88.75 42.508 0 
-88.4333 42.508 0 
-88.1167 42.508 0 
-87.8 42.508 0 
-89.3 37 0 
-89.2111 37 0 
-89.1222 37 0 
-89.0333 37 0 
-88.9444 37 0 
-88.8556 37 0 
-88.7667 37 0 
-88.6778 37 0 
-88.5889 37 0 
-88.5 37 0 
-89.5 37.5 0 
-89.3408 37.5 0 
-89.1816 37.5 0 
-89.0223 37.5 0 
-88.8631 37.5 0 
-88.7039 37.5 0 
-88.5447 37.5 0 
-88.3854 37.5 0 
-88.2262 37.5 0 
-88.067 37.5 0 
-90.05 38 0 
-89.825 38 0 
-89.6 38 0 
-89.375 38 0 
-89.15 38 0 
-88.925 38 0 
-88.7 38 0 
-88.475 38 0 
-88.25 38 0 
-88.025 38 0 
-90.267 38.5 0 
-89.9799 38.5 0 
-89.6928 38.5 0 
-89.4057 38.5 0 
-89.1186 38.5 0 
-88.8314 38.5 0 
-88.5443 38.5 0 
-88.2572 38.5 0 
-87.9701 38.5 0 
-87.683 38.5 0 
-90.683 39 0 
-90.3386 39 0 
-89.9941 39 0 
-89.6497 39 0 
-89.3052 39 0 
-88.9608 39 0 
-88.6163 39 0 
-88.2719 39 0 
-87.9274 39 0 
-87.583 39 0 
-91.067 39.5 0 
-90.6743 39.5 0 
-90.2817 39.5 0 
-89.889 39.5 0 
-89.4963 39.5 0 
-89.1037 39.5 0 
-88.711 39.5 0 
-88.3183 39.5 0 
-87.9257 39.5 0 
-87.533 39.5 0 
-91.467 40 0 
-91.0299 40 0 
-90.5928 40 0 
-90.1557 40 0 
-89.7186 40 0 
-89.2814 40 0 
-88.8443 40 0 
-88.4072 40 0 
-87.9701 40 0 
-87.533 40 0 
-91.367 40.5 0 
-90.9401 40.5 0 
-90.5132 40.5 0 
-90.0863 40.5 0 
-89.6594 40.5 0 
-89.2326 40.5 0 
-88.8057 40.5 0 
-88.3788 40.5 0 
-87.9519 40.5 0 
-87.525 40.5 0 
-90.933 41 0 
-90.5543 41 0 
-90.1757 41 0 
-89.797 41 0 
-89.4183 41 0 
-89.0397 41 0 
-88.661 41 0 
-88.2823 41 0 
-87.9037 41 0 
-87.525 41 0 
-91.125 41.5 0 
-90.725 41.5 0 
-90.325 41.5 0 
-89.925 41.5 0 
-89.525 41.5 0 
-89.125 41.5 0 
-88.725 41.5 0 
-88.325 41.5 0 
-87.925 41.5 0 
-87.525 41.5 0 
-90.142 42 0 
-89.8651 42 0 
-89.5882 42 0 
-89.3113 42 0 
-89.0344 42 0 
-88.7576 42 0 
-88.4807 42 0 
-88.2038 42 0 
-87.9269 42 0 
-87.65 42 0 
-90.65 42.508 0 
-90.3333 42.508 0 
-90.0167 42.508 0 
-89.7 42.508 0 
-89.3833 42.508 0 
-89.0667 42.508 0 
-88.75 42.508 0 
-88.4333 42.508 0 
-88.1167 42.508 0 
-87.8 42.508 0 
-89.3 37 0 
-89.2111 37 0 
-89.1222 37 0 
-89.0333 37 0 
-88.9444 37 0 
-88.8556 37 0 
-88.7667 37 0 
-88.6778 37 0 
-88.5889 37 0 
-88.5 37 0 
-89.5 37.5 0 
-89.3408 37.5 0 
-89.1816 37.5 0 
-89.0223 37.5 0 
-88.8631 37.5 0 
-88.7039 37.5 0 
-88.5447 37.5 0 
-88.3854 37.5 0 
-88.2262 37.5 0 
-88.067 37.5 0 
-90.05 38 0 
-89.825 38 0 
-89.6 38 0 
-89.375 38 0 
-89.15 38 0 
-88.925 38 0 
-88.7 38 0 
-88.475 38 0 
-88.25 38 0 
-88.025 38 0 
-90.267 38.5 0 
-89.9799 38.5 0 
-89.6928 38.5 0 
-89.4057 38.5 0 
-89.1186 38.5 0 
-88.8314 38.5 0 
-88.5443 38.5 0 
-88.2572 38.5 0 
-87.9701 38.5 0 
-87.683 38.5 0 
-90.683 39 0 
-90.3386 39 0 
-89.9941 39 0 
-89.6497 39 0 
-89.3052 39 0 
-88.9608 39 0 
-88.6163 39 0 
-88.2719 39 0 
-87.9274 39 0 
-87.583 39 0 
-91.067 39.5 0 
-90.6743 39.5 0 
-90.2817 39.5 0 
-89.889 39.5 0 
-89.4963 39.5 0 
-89.1037 39.5 0 
-88.711 39.5 0 
-88.3183 39.5 0 
-87.9257 39.5 0 
-87.533 39.5 0 
-91.467 40 0 
-91.0299 40 0 
-90.5928 40 0 
-90.1557 40 0 
-89.7186 40 0 
-89.2814 40 0 
-88.8443 40 0 
-88.4072 40 0 
-87.9701 40 0 
-87.533 40 0 
-91.367 40.5 0 
-90.9401 40.5 0 
-90.5132 40.5 0 
-90.0863 40.5 0 
-89.6594 40.5 0 
-89.2326 40.5 0 
-88.8057 40.5 0 
-88.3788 40.5 0 
-87.9519 40.5 0 
-87.525 40.5 0 
-90.933 41 0 
-90.5543 41 0 
-90.1757 41 0 
-89.797 41 0 
-89.4183 41 0 
-89.0397 41 0 
-88.661 41 0 
-88.2823 41 0 
-87.9037 41 0 
-87.525 41 0 
-91.125 41.5 0 
-90.725 41.5 0 
-90.325 41.5 0 
-89.925 41.5 0 
-89.525 41.5 0 
-89.125 41.5 0 
-88.725 41.5 0 
-88.325 41.5 0 
-87.925 41.5 0 
-87.525 41.5 0 
-90.142 42 0 
-89.8651 42 0 
-89.5882 42 0 
-89.3113 42 0 
-89.0344 42 0 
-88.7576 42 0 
-88.4807 42 0 
-88.2038 42 0 
-87.9269 42 0 
-87.65 42 0 
-90.65 42.508 0 
-90.3333 42.508 0 
-90.0167 42.508 0 
-89.7 42.508 0 
-89.3833 42.508 0 
-89.0667 42.508 0 
-88.75 42.508 0 
-88.4333 42.508 0 
-88.1167 42.508 0 
-87.8 42.508 0 
-89.3 37 0 
-89.2111 37 0 
-89.1222 37 0 
-89.0333 37 0 
-88.9444 37 0 
-88.8556 37 0 
-88.7667 37 0 
-88.6778 37 0 
-88.5889 37 0 
-88.5 37 0 
-89.5 37.5 0 
-89.3408 37.5 0 
-89.1816 37.5 0 
-89.0223 37.5 0 
-88.8631 37.5 0 
-88.7039 37.5 0 
-88.5447 37.5 0 
-88.3854 37.5 0 
-88.2262 37.5 0 
-88.067 37.5 0 
-90.05 38 0 
-89.825 38 0 
-89.6 38 0 
-89.375 38 0 
-89.15 38 0 
-88.925 38 0 
-88.7 38 0 
-88.475 38 0 
-88.25 38 0 
-88.025 38 0 
-90.267 38.5 0 
-89.9799 38.5 0 
-89.6928 38.5 0 
-89.4057 38.5 0 
-89.1186 38.5 0 
-88.8314 38.5 0 
-88.5443 38.5 0 
-88.2572 38.5 0 
-87.9701 38.5 0 
-87.683 38.5 0 
-90.683 39 0 
-90.3386 39 0 
-89.9941 39 0 
-89.6497 39 0 
-89.3052 39 0 
-88.9608 39 0 
-88.6163 39 0 
-88.2719 39 0 
-87.9274 39 0 
-87.583 39 0 
-91.067 39.5 0 
-90.6743 39.5 0 
-90.2817 39.5 0 
-89.889 39.5 0 
-89.4963 39.5 0 
-89.1037 39.5 0 
-88.711 39.5 0 
-88.3183 39.5 0 
-87.9257 39.5 0 
-87.533 39.5 0 
-91.467 40 0 
-91.0299 40 0 
-90.5928 40 0 
-90.1557 40 0 
-89.7186 40 0 
-89.2814 40 0 
-88.8443 40 0 
-88.4072 40 0 
-87.9701 40 0 
-87.533 40 0 
-91.367 40.5 0 
-90.9401 40.5 0 
-90.5132 40.5 0 
-90.0863 40.5 0 
-89.6594 40.5 0 
-89.2326 40.5 0 
-88.8057 40.5 0 
-88.3788 40.5 0 
-87.9519 40.5 0 
-87.525 40.5 0 
-90.933 41 0 
-90.5543 41 0 
-90.1757 41 0 
-89.797 41 0 
-89.4183 41 0 
-89.0397 41 0 
-88.661 41 0 
-88.2823 41 0 
-87.9037 41 0 
-87.525 41 0 
-91.125 41.5 0 
-90.725 41.5 0 
-90.325 41.5 0 
-89.925 41.5 0 
-89.525 41.5 0 
-89.125 41.5 0 
-88.725 41.5 0 
-88.325 41.5 0 
-87.925 41.5 0 
-87.525 41.5 0 
-90.142 42 0 
-89.8651 42 0 
-89.5882 42 0 
-89.3113 42 0 
-89.0344 42 0 
-88.7576 42 0 
-88.4807 42 0 
-88.2038 42 0 
-87.9269 42 0 
-87.65 42 0 
-90.65 42.508 0 
-90.3333 42.508 0 
-90.0167 42.508 0 
-89.7 42.508 0 
-89.3833 42.508 0 
-89.0667 42.508 0 
-88.75 42.508 0 
-88.4333 42.508 0 
-88.1167 42.508 0 
-87.8 42.508 0 
-89.3 37 0 
-89.2111 37 0 
-89.1222 37 0 
-89.0333 37 0 
-88.9444 37 0 
-88.8556 37 0 
-88.7667 37 0 
-88.6778 37 0 
-88.5889 37 0 
-88.5 37 0 
-89.5 37.5 0 
-89.3408 37.5 0 
-89.1816 37.5 0 
-89.0223 37.5 0 
-88.8631 37.5 0 
-88.7039 37.5 0 
-88.5447 37.5 0 
-88.3854 37.5 0 
-88.2262 37.5 0 
-88.067 37.5 0 
-90.05 38 0 
-89.825 38 0 
-89.6 38 0 
-89.375 38 0 
-89.15 38 0 
-88.925 38 0 
-88.7 38 0 
-88.475 38 0 
-88.25 38 0 
-88.025 38 0 
-90.267 38.5 0 
-89.9799 38.5 0 
-89.6928 38.5 0 
-89.4057 38.5 0 
-89.1186 38.5 0 
-88.8314 38.5 0 
-88.5443 38.5 0 
-88.2572 38.5 0 
-87.9701 38.5 0 
-87.683 38.5 0 
-90.683 39 0 
-90.3386 39 0 
-89.9941 39 0 
-89.6497 39 0 
-89.3052 39 0 
-88.9608 39 0 
-88.6163 39 0 
-88.2719 39 0 
-87.9274 39 0 
-87.583 39 0 
-91.067 39.5 0 
-90.6743 39.5 0 
-90.2817 39.5 0 
-89.889 39.5 0 
-89.4963 39.5 0 
-89.1037 39.5 0 
-88.711 39.5 0 
-88.3183 39.5 0 
-87.9257 39.5 0 
-87.533 39.5 0 
-91.467 40 0 
-91.0299 40 0 
-90.5928 40 0 
-90.1557 40 0 
-89.7186 40 0 
-89.2814 40 0 
-88.8443 40 0 
-88.4072 40 0 
-87.9701 40 0 
-87.533 40 0 
-91.367 40.5 0 
-90.9401 40.5 0 
-90.5132 40.5 0 
-90.0863 40.5 0 
-89.6594 40.5 0 
-89.2326 40.5 0 
-88.8057 40.5 0 
-88.3788 40.5 0 
-87.9519 40.5 0 
-87.525 40.5 0 
-90.933 41 0 
-90.5543 41 0 
-90.1757 41 0 
-89.797 41 0 
-89.4183 41 0 
-89.0397 41 0 
-88.661 41 0 
-88.2823 41 0 
-87.9037 41 0 
-87.525 41 0 
-91.125 41.5 0 
-90.725 41.5 0 
-90.325 41.5 0 
-89.925 41.5 0 
-89.525 41.5 0 
-89.125 41.5 0 
-88.725 41.5 0 
-88.325 41.5 0 
-87.925 41.5 0 
-87.525 41.5 0 
-90.142 42 0 
-89.8651 42 0 
-89.5882 42 0 
-89.3113 42 0 
-89.0344 42 0 
-88.7576 42 0 
-88.4807 42 0 
-88.2038 42 0 
-87.9269 42 0 
-87.65 42 0 
-90.65 42.508 0 
-90.3333 42.508 0 
-90.0167 42.508 0 
-89.7 42.508 0 
-89.3833 42.508 0 
-89.0667 42.508 0 
-88.75 42.508 0 
-88.4333 42.508 0 
-88.1167 42.508 0 
-87.8 42.508 0 
-89.3 37 0 
-89.2111 37 0 
-89.1222 37 0 
-89.0333 37 0 
-88.9444 37 0 
-88.8556 37 0 
-88.7667 37 0 
-88.6778 37 0 
-88.5889 37 0 
-88.5 37 0 
-89.5 37.5 0 
-89.3408 37.5 0 
-89.1816 37.5 0 
-89.0223 37.5 0 
-88.8631 37.5 0 
-88.7039 37.5 0 
-88.5447 37.5 0 
-88.3854 37.5 0 
-88.2262 37.5 0 
-88.067 37.5 0 
-90.05 38 0 
-89.825 38 0 
-89.6 38 0 
-89.375 38 0 
-89.15 38 0 
-88.925 38 0 
-88.7 38 0 
-88.475 38 0 
-88.25 38 0 
-88.025 38 0 
-90.267 38.5 0 
-89.9799 38.5 0 
[...]
POINT_DATA 3720
VECTORS WindVector float
0.0437991 0.0862839 0 
0.0417516 0.0862344 0 
0.03965 0.086212 0 
0.0374556 0.08622 0 
0.0352328 0.086256 0 
0.0332021 0.086309 0 
0.0317183 0.0863599 0 
0.0311477 0.0863886 0 
0.0317056 0.0863827 0 
0.033366 0.0863425 0 
0.0362033 0.0869637 0 
0.0282054 0.0867745 0 
0.0259248 0.0865774 0 
0.0266577 0.0860484 0 
0.0169648 0.0865043 0 
0.00214133 0.0876175 0 
0.00946023 0.087198 0 
0.0248435 0.0866393 0 
0.0380713 0.0864361 0 
0.0475789 0.0863543 0 
0.0683622 0.0981976 0 
0.0632225 0.0965269 0 
0.0551082 0.0911027 0 
0.0463527 0.0856278 0 
0.0490346 0.0786832 0 
0.0584867 0.0693957 0 
0.0555963 0.077801 0 
0.0546588 0.0873999 0 
0.0569791 0.0901397 0 
0.0608388 0.0885561 0 
0.0756418 0.105466 0 
0.0683664 0.123945 0 
0.0699855 0.116392 0 
0.0739244 0.0936328 0 
0.0746265 0.0850249 0 
0.0720573 0.0849123 0 
0.0617192 0.0959073 0 
0.059368 0.094742 0 
0.0654854 0.0807392 0 
0.0720161 0.0822441 0 
0.0918507 0.0797398 0 
0.0885404 0.0863211 0 
0.0853089 0.0921661 0 
0.0871953 0.0899212 0 
0.0945039 0.0890121 0 
0.107109 0.0957662 0 
0.0922852 0.0885207 0 
0.0779528 0.0805904 0 
0.0764593 0.0783306 0 
0.0860274 0.0817645 0 
0.093678 0.0627021 0 
0.0929113 0.0626925 0 
0.0970868 0.0710282 0 
0.0950847 0.068072 0 
0.0938176 0.0650212 0 
0.104323 0.0806398 0 
0.113226 0.0855371 0 
0.118104 0.0849878 0 
0.113094 0.0833891 0 
0.109796 0.0837439 0 
0.106671 0.0706843 0 
0.0953994 0.059846 0 
0.0978538 0.0621368 0 
0.0984575 0.0620225 0 
0.102107 0.0669739 0 
0.111836 0.0752115 0 
0.132908 0.0855604 0 
0.192769 0.10862 0 
0.128008 0.0779267 0 
0.12752 0.0848756 0 
0.125755 0.0792784 0 
0.135834 0.0826863 0 
0.128097 0.0787932 0 
0.111946 0.0710218 0 
0.123366 0.0798849 0 
0.130634 0.083844 0 
0.140071 0.0871582 0 
0.152439 0.0926272 0 
0.152498 0.0940106 0 
0.143927 0.0912582 0 
0.171799 0.0989092 0 
0.170958 0.098437 0 
0.131246 0.080867 0 
0.121486 0.0774054 0 
0.132054 0.0827768 0 
0.138291 0.0822873 0 
0.15842 0.0934434 0 
0.20808 0.129633 0 
0.190892 0.117732 0 
0.159436 0.0976213 0 
0.142962 0.0860118 0 
0.14624 0.0866738 0 
0.138353 0.0818402 0 
0.133125 0.0774296 0 
0.134256 0.0737444 0 
0.137797 0.064048 0 
0.146899 0.0639992 0 
0.167172 0.0840509 0 
0.167625 0.0918065 0 
0.157243 0.0903189 0 
0.138169 0.0755876 0 
0.140766 0.0734271 0 
0.141573 0.0715341 0 
0.139216 0.0635739 0 
0.134919 0.0448344 0 
0.137392 0.0422967 0 
0.176632 0.0773518 0 
0.177828 0.0803919 0 
0.164992 0.0804764 0 
0.156681 0.0823292 0 
0.13491 0.0773552 0 
0.137397 0.075594 0 
0.140861 0.0737464 0 
0.143431 0.0727962 0 
0.142253 0.0710459 0 
0.142255 0.0670327 0 
0.146752 0.0670325 0 
0.153453 0.0718267 0 
0.155234 0.0757521 0 
0.152186 0.0782158 0 
-0.0495071 0.0056881 0 
-0.0485467 0.00582553 0 
-0.0473953 0.00597212 0 
-0.0460835 0.0061127 0 
-0.0447011 0.00623427 0 
-0.0433995 0.00633713 0 
-0.0423608 0.00644119 0 
-0.041737 0.00658041 0 
-0.0415906 0.00678679 0 
-0.0418765 0.00707504 0 
-0.0538109 0.00315387 0 
-0.054069 0.00235189 0 
-0.0532485 0.00249826 0 
-0.0483465 0.00438624 0 
-0.0384034 0.00532401 0 
-0.0298487 0.00440768 0 
-0.0330053 0.00520721 0 
-0.0388146 0.00708698 0 
-0.0430615 0.00884422 0 
-0.0455716 0.0101759 0 
-0.054649 -0.00163355 0 
-0.0544406 -0.000369659 0 
-0.054711 0.00253015 0 
-0.0554076 0.00527969 0 
-0.0571179 0.0102921 0 
-0.0602927 0.0171907 0 
-0.0555948 0.0144974 0 
-0.0514382 0.0132591 0 
-0.0502637 0.0137357 0 
-0.0495941 0.0143119 0 
-0.0553805 -0.00681893 0 
-0.0526811 -0.0141909 0 
-0.0533163 -0.0102669 0 
-0.0551031 0.00278473 0 
-0.0559431 0.00939321 0 
-0.0552189 0.0124457 0 
-0.0523074 0.015047 0 
-0.0503495 0.0172324 0 
-0.0470708 0.0205118 0 
-0.0478826 0.0189201 0 
-0.0649863 -0.0049558 0 
-0.0610309 -0.00397608 0 
-0.0579044 -0.00341144 0 
-0.0567833 -4.5934e-005 0 
-0.0558343 0.00446011 0 
-0.0559723 0.00263959 0 
-0.052795 0.0111079 0 
-0.0478443 0.0196579 0 
-0.046392 0.0216894 0 
-0.0472003 0.0205883 0 
-0.0791578 -0.0141223 0 
-0.0781655 -0.0137811 0 
-0.0672689 -0.00589306 0 
-0.0620039 -0.00170331 0 
-0.0605059 9.10162e-005 0 
-0.0559178 0.00825668 0 
-0.0516501 0.0173922 0 
-0.0471987 0.0248741 0 
-0.044746 0.0257051 0 
-0.0450348 0.0244587 0 
-0.0762299 -0.0101354 0 
-0.0832389 -0.0169859 0 
-0.0789143 -0.0144332 0 
-0.0685527 -0.0104327 0 
-0.0635509 -0.00330424 0 
-0.0591523 0.00514218 0 
-0.0518847 0.0228035 0 
-0.0669388 0.0446427 0 
-0.0329232 0.0348201 0 
-0.0406138 0.0303763 0 
-0.0800459 -0.0105028 0 
-0.0866678 -0.0144182 0 
-0.0797476 -0.0122288 0 
-0.0665141 -0.00927644 0 
-0.0653768 -0.0077745 0 
-0.0642075 0.00252374 0 
-0.0492951 0.0237592 0 
-0.037826 0.0394025 0 
-0.0329073 0.042353 0 
-0.0369662 0.0367243 0 
-0.105081 -0.0221065 0 
-0.103945 -0.0217814 0 
-0.0710022 -0.00832175 0 
-0.0607896 -0.00766316 0 
-0.0649792 -0.000938315 0 
-0.0539141 0.0152782 0 
-0.0382999 0.0374433 0 
-0.0142747 0.0727266 0 
-0.0209851 0.0621892 0 
-0.0330188 0.0432584 0 
-0.0795931 -0.00785685 0 
-0.0802464 -0.00840546 0 
-0.0697312 -0.00289657 0 
-0.0598278 0.00328364 0 
-0.0542881 0.0111573 0 
-0.0478909 0.0254713 0 
-0.040441 0.036697 0 
-0.0297631 0.045461 0 
-0.0299012 0.0459137 0 
-0.0343188 0.0401509 0 
-0.0529987 0.00662763 0 
-0.047155 0.00808831 0 
-0.0451213 0.0102669 0 
-0.0456296 0.0206583 0 
-0.0451738 0.034644 0 
-0.0429501 0.0393106 0 
-0.022147 0.0496886 0 
-0.0216871 0.0495205 0 
-0.0294805 0.0428487 0 
-0.0341731 0.0383694 0 
-0.0564095 0.00670838 0 
-0.0518799 0.00816788 0 
-0.0464966 0.00847318 0 
-0.0430756 0.00761328 0 
-0.0439194 0.0128075 0 
-0.0434688 0.0233873 0 
-0.0402147 0.0312209 0 
-0.0361441 0.0357699 0 
-0.0350511 0.0365842 0 
-0.0366366 0.0348138 0 
-0.102373 -0.0267365 0 
-0.100549 -0.026763 0 
-0.098404 -0.0267061 0 
-0.0959676 -0.0265988 0 
-0.0933883 -0.0264763 0 
-0.090955 -0.0263595 0 
-0.0890488 -0.0262444 0 
-0.0880142 -0.0261072 0 
-0.0880181 -0.025921 0 
-0.088992 -0.0256729 0 
-0.105944 -0.0313021 0 
-0.104237 -0.0342484 0 
-0.10264 -0.0344007 0 
-0.0964791 -0.030564 0 
-0.0791337 -0.0277597 0 
-0.0614485 -0.0280037 0 
-0.0686427 -0.027397 0 
-0.0823965 -0.0260308 0 
-0.0929174 -0.0248242 0 
-0.0995318 -0.0238724 0 
-0.108185 -0.0212819 0 
-0.108204 -0.022352 0 
-0.110176 -0.0243758 0 
-0.112894 -0.0260868 0 
-0.12245 -0.0208766 0 
-0.138386 -0.011006 0 
-0.124818 -0.0173665 0 
-0.113435 -0.0245076 0 
-0.110771 -0.0258788 0 
-0.109992 -0.0233177 0 
-0.105695 -0.0191512 0 
-0.0933228 -0.0189902 0 
-0.098114 -0.0190851 0 
-0.113397 -0.0184977 0 
-0.121142 -0.0165838 0 
-0.121746 -0.0180012 0 
-0.115043 -0.0299941 0 
-0.110623 -0.0273322 0 
-0.104409 -0.00875716 0 
-0.108802 -0.0125798 0 
-0.126907 -0.0163571 0 
-0.119629 -0.0177463 0 
-0.113427 -0.0184604 0 
-0.114015 -0.0181836 0 
-0.116562 -0.0159377 0 
-0.114413 -0.0110168 0 
-0.115992 -0.0147493 0 
-0.108807 -0.00849857 0 
-0.106874 -0.00608278 0 
-0.113604 -0.0129407 0 
-0.145166 -0.0093786 0 
-0.143315 -0.00994282 0 
-0.129469 -0.0166513 0 
-0.118091 -0.0184916 0 
-0.113765 -0.0183222 0 
-0.1223 -0.0179691 0 
-0.127283 -0.0183024 0 
-0.127602 -0.0181328 0 
-0.122845 -0.0173263 0 
-0.122905 -0.0182941 0 
-0.144846 -0.0131131 0 
-0.150154 -0.00779817 0 
-0.144639 -0.0114749 0 
-0.128255 -0.0236505 0 
-0.123344 -0.0197905 0 
-0.127891 -0.0191558 0 
-0.140228 -0.021428 0 
-0.207356 -0.03173 0 
-0.11134 -0.0160682 0 
-0.128278 -0.0216011 0 
-0.152586 -0.0152844 0 
-0.161017 -0.0151262 0 
-0.15071 -0.0173022 0 
-0.130634 -0.0196242 0 
-0.135338 -0.0150812 0 
-0.14421 -0.0171981 0 
-0.144475 -0.0241765 0 
-0.147509 -0.0288901 0 
-0.145743 -0.0311677 0 
-0.142267 -0.0290785 0 
-0.187859 -0.0150795 0 
-0.186334 -0.0152054 0 
-0.142124 -0.0170723 0 
-0.127473 -0.0158426 0 
-0.143197 -0.0161804 0 
-0.144345 -0.0225777 0 
-0.157692 -0.0348477 0 
-0.204473 -0.0641372 0 
-0.186758 -0.0541141 0 
-0.156112 -0.0368922 0 
-0.155537 -0.0175239 0 
-0.156382 -0.0175662 0 
-0.143111 -0.0186043 0 
-0.132192 -0.0196628 0 
-0.132747 -0.0210952 0 
-0.140985 -0.0238778 0 
-0.14472 -0.027149 0 
-0.144274 -0.0328543 0 
-0.151097 -0.0360584 0 
-0.147851 -0.0333071 0 
-0.114851 -0.0216772 0 
-0.100146 -0.0227301 0 
-0.0983786 -0.0232118 0 
-0.121122 -0.0236539 0 
-0.144058 -0.0241583 0 
-0.146981 -0.0245628 0 
-0.123256 -0.0273913 0 
-0.123017 -0.0278413 0 
-0.132227 -0.0286728 0 
-0.137182 -0.0291421 0 
-0.124806 -0.0211956 0 
-0.114578 -0.0220188 0 
-0.0987097 -0.0229354 0 
-0.0860168 -0.0234657 0 
-0.100196 -0.023627 0 
-0.122154 -0.0242847 0 
-0.130749 -0.0252157 0 
-0.131207 -0.0261588 0 
-0.131618 -0.0267635 0 
-0.133431 -0.0270619 0 
0.0145559 0.0286011 0 
0.0153381 0.0287691 0 
0.0160003 0.0290231 0 
0.0166573 0.029404 0 
0.0173634 0.0299068 0 
0.0180261 0.0304381 0 
0.0183846 0.0308145 0 
0.0181024 0.0308252 0 
0.0169299 0.030329 0 
0.0148254 0.0293195 0 
0.032864 0.0339812 0 
0.0437548 0.0376754 0 
0.0447656 0.0377493 0 
0.0333198 0.033124 0 
0.031946 0.0361325 0 
0.0434366 0.0459329 0 
0.0358869 0.0405748 0 
0.019169 0.0295661 0 
0.00449688 0.0208991 0 
-0.00584577 0.0157734 0 
0.0178257 0.0382902 0 
0.0186584 0.0353336 0 
0.0162082 0.0289136 0 
0.0144416 0.0209848 0 
-0.00857341 -0.0025888 0 
-0.0461989 -0.0385396 0 
-0.033272 -0.0212558 0 
-0.0287138 -0.0134473 0 
-0.0312135 -0.0123113 0 
-0.0318664 -0.0056688 0 
0.0270837 0.0480493 0 
0.0635342 0.0602807 0 
0.0477513 0.0533945 0 
-0.0028394 0.0284695 0 
-0.0277133 0.0106871 0 
-0.0375809 -0.00256995 0 
-0.0457337 -0.0292796 0 
-0.0486444 -0.0296099 0 
-0.0465589 0.000997974 0 
-0.043329 0.0048842 0 
-0.0140769 0.043989 0 
-0.00722071 0.0436718 0 
-0.000141439 0.0443049 0 
-0.0101929 0.041617 0 
-0.0274792 0.0443337 0 
-0.0336464 0.0715021 0 
-0.0391836 0.0319803 0 
-0.0465739 0.0125611 0 
-0.0481621 0.0116298 0 
-0.0471978 0.011375 0 
-0.0145032 0.0551323 0 
-0.0150638 0.0546331 0 
-0.0276104 0.0450365 0 
-0.0354644 0.0449212 0 
-0.0389877 0.0465216 0 
-0.0421179 0.0369764 0 
-0.0502941 0.0275519 0 
-0.0564319 0.0185736 0 
-0.0551456 0.0154137 0 
-0.0539998 0.014577 0 
-0.0271658 0.0498104 0 
-0.0142451 0.0585668 0 
-0.0218759 0.0538032 0 
-0.0419929 0.0419991 0 
-0.0439526 0.0418602 0 
-0.0496247 0.0356014 0 
-0.0637943 0.0230843 0 
-0.108106 0.0153858 0 
-0.0568648 0.0133216 0 
-0.0622618 0.0142087 0 
-0.0396068 0.0502564 0 
-0.043577 0.0548796 0 
-0.0457963 0.0489448 0 
-0.0472688 0.0375782 0 
-0.0567524 0.0324282 0 
-0.0628024 0.0315095 0 
-0.0707753 0.0203598 0 
-0.0811081 0.011013 0 
-0.082804 0.00812834 0 
-0.076318 0.0109454 0 
-0.0564416 0.0668058 0 
-0.0568947 0.0657646 0 
-0.0524027 0.0395806 0 
-0.0533964 0.0298132 0 
-0.0634389 0.0311701 0 
-0.0704908 0.024003 0 
-0.0902988 0.0111693 0 
-0.140938 -0.0128983 0 
-0.122863 -0.00557275 0 
-0.0907043 0.00711784 0 
-0.0515114 0.0473962 0 
-0.0534748 0.0475391 0 
-0.0543373 0.0389105 0 
-0.0569818 0.0305133 0 
-0.0637859 0.0256077 0 
-0.0774093 0.0201979 0 
-0.0862784 0.0154031 0 
-0.0899204 0.00982441 0 
-0.0925619 0.00785965 0 
-0.0852242 0.0103876 0 
-0.053461 0.0258972 0 
-0.0517298 0.0213567 0 
-0.0533548 0.0196843 0 
-0.0678789 0.0193209 0 
-0.0874997 0.0172919 0 
-0.0917966 0.0161167 0 
-0.0823055 0.0113093 0 
-0.081585 0.0110841 0 
-0.0811503 0.0124618 0 
-0.0795199 0.0133078 0 
-0.0534548 0.0287913 0 
-0.053275 0.025176 0 
-0.0509503 0.0210005 0 
-0.0480445 0.0184128 0 
-0.0551959 0.0189344 0 
-0.0683788 0.018621 0 
-0.0755523 0.0171394 0 
-0.0772912 0.0156781 0 
-0.0769119 0.0151717 0 
-0.0755418 0.0154497 0 
0.0965495 0.0943993 0 
0.0963674 0.0937883 0 
0.0959473 0.0932322 0 
0.0953542 0.0927294 0 
0.0946774 0.0922892 0 
0.0940029 0.091935 0 
0.0933845 0.0917004 0 
0.0928272 0.0916185 0 
0.092295 0.0917072 0 
0.0917372 0.091962 0 
0.107814 0.0934346 0 
0.112045 0.0915617 0 
0.112023 0.0906805 0 
0.104979 0.089504 0 
0.0965093 0.0884924 0 
0.0926024 0.0881841 0 
0.0930795 0.0884894 0 
0.0929435 0.0897239 0 
0.0917397 0.0914586 0 
0.0899997 0.0931541 0 
0.102707 0.11708 0 
0.104651 0.112642 0 
0.105024 0.102267 0 
0.106761 0.0911404 0 
0.105957 0.0774643 0 
0.104279 0.0596402 0 
0.100462 0.0742755 0 
0.0966292 0.0890052 0 
0.0943578 0.0939169 0 
0.0912491 0.0948736 0 
0.106331 0.129882 0 
0.129005 0.150008 0 
0.121214 0.140578 0 
0.100768 0.109809 0 
0.0973374 0.0945712 0 
0.0967592 0.0911159 0 
0.0972953 0.0983026 0 
0.0972376 0.0966107 0 
0.0923735 0.0875648 0 
0.0854952 0.0931393 0 
0.0749517 0.106822 0 
0.0815308 0.113222 0 
0.0887904 0.119139 0 
0.087108 0.116348 0 
0.0891487 0.112913 0 
0.105885 0.119261 0 
0.0885684 0.108089 0 
0.0850116 0.094151 0 
0.0833562 0.0914088 0 
0.0728435 0.10006 0 
0.0710417 0.0907494 0 
0.0708886 0.090293 0 
0.0642615 0.0997308 0 
0.0634679 0.10469 0 
0.0643124 0.10678 0 
0.0647737 0.113178 0 
0.0580052 0.119561 0 
0.0479756 0.122425 0 
0.0472438 0.117621 0 
0.0482956 0.114629 0 
0.0623848 0.102435 0 
0.0708665 0.0885644 0 
0.0651463 0.0892015 0 
0.0511642 0.0769614 0 
0.0508642 0.098614 0 
0.0452398 0.110636 0 
0.0341063 0.129587 0 
0.0268454 0.186294 0 
0.019676 0.125324 0 
0.0272714 0.123299 0 
0.056772 0.117455 0 
0.0584368 0.123979 0 
0.0511651 0.114524 0 
0.035908 0.0973539 0 
0.0176278 0.105658 0 
0.021536 0.109591 0 
0.0169025 0.126254 0 
0.00528836 0.134065 0 
-0.000306712 0.13008 0 
0.00833289 0.127009 0 
0.0643822 0.154312 0 
0.0625545 0.153374 0 
0.0316545 0.120344 0 
0.0137781 0.112924 0 
0.0137418 0.110468 0 
0.00680507 0.121751 0 
-0.0126636 0.130749 0 
-0.057744 0.135224 0 
-0.041417 0.133612 0 
-0.0108426 0.129684 0 
0.0455585 0.131432 0 
0.0430235 0.133419 0 
0.0300753 0.126362 0 
0.0156639 0.122009 0 
0.0040876 0.126474 0 
-0.0138558 0.143756 0 
-0.0282588 0.150483 0 
-0.0361299 0.137325 0 
-0.0292074 0.133693 0 
-0.0147651 0.130885 0 
0.00609477 0.122493 0 
-0.00477914 0.121054 0 
-0.0096597 0.123032 0 
-0.0158514 0.138858 0 
-0.0326038 0.166587 0 
-0.0394695 0.171351 0 
-0.0548504 0.136542 0 
-0.0531294 0.133761 0 
-0.0350806 0.13436 0 
-0.0212926 0.13263 0 
0.0160348 0.123066 0 
0.00656164 0.122466 0 
-0.00452293 0.1206 0 
-0.0114975 0.118511 0 
-0.0114776 0.124807 0 
-0.0161388 0.136834 0 
-0.023065 0.141491 0 
-0.0274598 0.138779 0 
-0.025676 0.135611 0 
-0.0186144 0.133206 0 
0.0292251 0.0619736 0 
0.0282282 0.0623207 0 
0.0270919 0.0627215 0 
0.0258363 0.0631735 0 
0.0245348 0.0636524 0 
0.0233178 0.0641069 0 
0.0223464 0.0644675 0 
0.0217561 0.0646711 0 
0.0216015 0.0646874 0 
0.0218402 0.06453 0 
0.0321945 0.0618127 0 
0.0313151 0.0622733 0 
0.0303671 0.0625359 0 
0.0266999 0.0633076 0 
0.0183778 0.066285 0 
0.010892 0.0695546 0 
0.0136125 0.0682616 0 
0.0184517 0.0659192 0 
0.0218446 0.064239 0 
0.0238467 0.063199 0 
0.0415435 0.0639301 0 
0.0401086 0.0637816 0 
0.0373242 0.062002 0 
0.0351991 0.0601091 0 
0.0365243 0.0563904 0 
0.0407336 0.0506761 0 
0.0338344 0.056238 0 
0.0255656 0.0624254 0 
0.0227439 0.0640974 0 
0.0231651 0.0631187 0 
0.0463488 0.0660024 0 
0.0504993 0.0764837 0 
0.048137 0.0726667 0 
0.040593 0.0616247 0 
0.0375596 0.0578671 0 
0.0334049 0.0587277 0 
0.0200964 0.0667468 0 
0.0160036 0.0666513 0 
0.0182229 0.0587257 0 
0.022402 0.0594552 0 
0.0476505 0.0470985 0 
0.0463918 0.0523788 0 
0.0458499 0.0568935 0 
0.0440565 0.0564768 0 
0.0408245 0.0573108 0 
0.0415039 0.0603886 0 
0.0338613 0.0599387 0 
0.0234456 0.0583365 0 
0.0215735 0.0576564 0 
0.0260926 0.0597605 0 
0.0569067 0.0303234 0 
0.0562817 0.0303959 0 
0.0486134 0.0396848 0 
0.0495354 0.0380695 0 
0.051434 0.0358677 0 
0.0416644 0.0525636 0 
0.0369519 0.0613266 0 
0.033633 0.0654056 0 
0.0317285 0.0643941 0 
0.0318926 0.0630572 0 
0.0535093 0.0381581 0 
0.0596013 0.0270163 0 
0.0553257 0.0298152 0 
0.0432514 0.0321094 0 
0.0458442 0.0369293 0 
0.0425609 0.0467315 0 
0.0384419 0.0637882 0 
0.0447189 0.0916873 0 
0.0304649 0.0682788 0 
0.0349603 0.0658503 0 
0.0548162 0.0449608 0 
0.0586674 0.0463659 0 
0.0525795 0.043771 0 
0.0410921 0.0375046 0 
0.0323489 0.0440748 0 
0.033038 0.0526957 0 
0.0386607 0.062164 0 
0.0413935 0.0710224 0 
0.0427935 0.0707851 0 
0.0406238 0.0675077 0 
0.0704511 0.0570818 0 
0.0694249 0.0566889 0 
0.0451041 0.0452076 0 
0.0351094 0.0405401 0 
0.031217 0.0499254 0 
0.0352332 0.0541693 0 
0.0440569 0.0639953 0 
0.0701896 0.0824725 0 
0.0609719 0.0774919 0 
0.0455147 0.0686617 0 
0.0539042 0.0513653 0 
0.054041 0.0516399 0 
0.0466238 0.0493846 0 
0.0393354 0.0477975 0 
0.0349462 0.0478284 0 
0.0302896 0.0456913 0 
0.0278988 0.0490725 0 
0.0305219 0.0646185 0 
0.0377156 0.0673023 0 
0.0386387 0.0653736 0 
0.0398194 0.0494109 0 
0.0383723 0.0492131 0 
0.0371475 0.0487489 0 
0.0320874 0.045435 0 
0.0243748 0.0360531 0 
0.0214561 0.0361032 0 
0.0129114 0.0688245 0 
0.0139135 0.0706746 0 
0.0235711 0.0651788 0 
0.02993 0.0630239 0 
0.0410034 0.0502856 0 
0.0395009 0.0500361 0 
0.0385358 0.0497406 0 
0.0384676 0.0495526 0 
0.0361994 0.0492765 0 
0.0312581 0.0489638 0 
0.0272931 0.0515423 0 
0.0250344 0.0568635 0 
0.0256545 0.0597096 0 
0.028442 0.0600696 0 
-0.0179265 -0.063966 0 
-0.017033 -0.0623868 0 
-0.0160679 -0.0605615 0 
-0.0150302 -0.0585434 0 
-0.0139652 -0.0564688 0 
-0.0129794 -0.0545536 0 
-0.012224 -0.0530474 0 
-0.0118421 -0.0521522 0 
-0.0119073 -0.0519471 0 
-0.0123949 -0.0523691 0 
-0.0175459 -0.0707014 0 
-0.0152808 -0.0714476 0 
-0.0143612 -0.069985 0 
-0.0130494 -0.0611727 0 
-0.00722718 -0.0466586 0 
-0.000438829 -0.0359169 0 
-0.00340093 -0.0396797 0 
-0.00926696 -0.0468444 0 
-0.0139634 -0.0525659 0 
-0.0170821 -0.0564726 0 
-0.0303328 -0.0792872 0 
-0.0282153 -0.076826 0 
-0.0245571 -0.0724673 0 
-0.0214078 -0.0682467 0 
-0.0232594 -0.0605782 0 
-0.0285047 -0.0504444 0 
-0.0245853 -0.0539299 0 
-0.0215676 -0.0574068 0 
-0.0213324 -0.0591842 0 
-0.0218201 -0.0604797 0 
-0.0354417 -0.0859996 0 
-0.0374757 -0.0918852 0 
-0.0354737 -0.0875652 0 
-0.0283647 -0.0714265 0 
-0.0251603 -0.0612734 0 
-0.0242327 -0.0585048 0 
-0.022594 -0.0603369 0 
-0.0222374 -0.0599789 0 
-0.0228951 -0.0588768 0 
-0.0239003 -0.0622936 0 
-0.0422847 -0.088816 0 
-0.0385916 -0.0857956 0 
-0.0357612 -0.0830714 0 
-0.0324228 -0.0774821 0 
-0.024729 -0.0657439 0 
-0.0133 -0.049985 0 
-0.0218143 -0.0609588 0 
-0.0241135 -0.0618023 0 
-0.0244044 -0.0618954 0 
-0.0259903 -0.0670332 0 
-0.0578608 -0.0994829 0 
-0.0566977 -0.0980418 0 
-0.0436846 -0.088502 0 
-0.0382443 -0.0787077 0 
-0.0369241 -0.0738926 0 
-0.0309202 -0.0742743 0 
-0.0298938 -0.0748944 0 
-0.0308948 -0.0763505 0 
-0.0298403 -0.075029 0 
-0.0293119 -0.0754403 0 
-0.0530402 -0.101005 0 
-0.0619794 -0.103047 0 
-0.0562299 -0.0993684 0 
-0.0417827 -0.0872263 0 
-0.0383305 -0.0833818 0 
-0.0358867 -0.0842945 0 
-0.035527 -0.0860351 0 
-0.0495519 -0.105303 0 
-0.0302465 -0.0750918 0 
-0.0310247 -0.080702 0 
-0.0539037 -0.10886 0 
-0.0580413 -0.115304 0 
-0.0511618 -0.107799 0 
-0.037854 -0.094317 0 
-0.0322106 -0.0986221 0 
-0.0358816 -0.0983041 0 
-0.0349279 -0.092047 0 
-0.0335694 -0.0885926 0 
-0.0316346 -0.0873973 0 
-0.0314532 -0.0873854 0 
-0.0702702 -0.136978 0 
-0.0691194 -0.136109 0 
-0.0422502 -0.106692 0 
-0.0301844 -0.0987502 0 
-0.0350562 -0.10255 0 
-0.0355705 -0.100902 0 
-0.0334298 -0.0993701 0 
-0.0300642 -0.102555 0 
-0.0304378 -0.0996906 0 
-0.0310578 -0.094231 0 
-0.0532109 -0.116261 0 
-0.0535833 -0.118348 0 
-0.0463931 -0.112436 0 
-0.0401184 -0.108364 0 
-0.0387146 -0.108599 0 
-0.0408195 -0.113041 0 
-0.038227 -0.112723 0 
-0.0269335 -0.102042 0 
-0.0279761 -0.0994119 0 
-0.0298853 -0.0969614 0 
-0.0424872 -0.117306 0 
-0.0424993 -0.123328 0 
-0.0425822 -0.124958 0 
-0.042793 -0.120892 0 
-0.0477323 -0.125336 0 
-0.0466764 -0.125226 0 
-0.0159453 -0.0992999 0 
-0.0148122 -0.0974804 0 
-0.0232707 -0.0996705 0 
-0.0276287 -0.0991461 0 
-0.0423025 -0.111694 0 
-0.0420019 -0.116103 0 
-0.042419 -0.12331 0 
-0.0431505 -0.129198 0 
-0.0419338 -0.123982 0 
-0.0396022 -0.116636 0 
-0.0357623 -0.111647 0 
-0.0304505 -0.106339 0 
-0.028333 -0.103016 0 
-0.0291167 -0.101142 0 
-0.011829 -0.100817 0 
-0.0111491 -0.0993849 0 
-0.0104985 -0.097493 0 
-0.00984243 -0.0952541 0 
-0.00918124 -0.0928788 0 
-0.00858046 -0.0906493 0 
-0.00817066 -0.0888541 0 
-0.00810143 -0.0877009 0 
-0.00847129 -0.0872524 0 