# vtk DataFile Version 3.0
Autogenerated from february.txt by weatherdisplay
ASCII
DATASET STRUCTURED_GRID
DIMENSIONS 10 12 28
POINTS 3360 float
-89.3 37 0 
-89.2111 37 0 
-89.1222 37 0 
-89.0333 37 0 
-88.9444 37 0 
-88.8556 37 0 
-88.7667 37 0 
-88.6778 37 0 
-88.5889 37 0 
-88.5 37 0 
-89.5 37.5 0 
-89.3408 37.5 0 
-89.1816 37.5 0 
-89.0223 37.5 0 
-88.8631 37.5 0 
-88.7039 37.5 0 
-88.5447 37.5 0 
-88.3854 37.5 0 
-88.2262 37.5 0 
-88.067 37.5 0 
-90.05 38 0 
-89.825 38 0 
-89.6 38 0 
-89.375 38 0 
-89.15 38 0 
-88.925 38 0 
-88.7 38 0 
-88.475 38 0 
-88.25 38 0 
-88.025 38 0 
-90.267 38.5 0 
-89.9799 38.5 0 
-89.6928 38.5 0 
-89.4057 38.5 0 
-89.1186 38.5 0 
-88.8314 38.5 0 
-88.5443 38.5 0 
-88.2572 38.5 0 
-87.9701 38.5 0 
-87.683 38.5 0 
-90.683 39 0 
-90.3386 39 0 
-89.9941 39 0 
-89.6497 39 0 
-89.3052 39 0 
-88.9608 39 0 
-88.6163 39 0 
-88.2719 39 0 
-87.9274 39 0 
-87.583 39 0 
-91.067 39.5 0 
-90.6743 39.5 0 
-90.2817 39.5 0 
-89.889 39.5 0 
-89.4963 39.5 0 
-89.1037 39.5 0 
-88.711 39.5 0 
-88.3183 39.5 0 
-87.9257 39.5 0 
-87.533 39.5 0 
-91.467 40 0 
-91.0299 40 0 
-90.5928 40 0 
-90.1557 40 0 
-89.7186 40 0 
-89.2814 40 0 
-88.8443 40 0 
-88.4072 40 0 
-87.9701 40 0 
-87.533 40 0 
-91.367 40.5 0 
-90.9401 40.5 0 
-90.5132 40.5 0 
-90.0863 40.5 0 
-89.6594 40.5 0 
-89.2326 40.5 0 
-88.8057 40.5 0 
-88.3788 40.5 0 
-87.9519 40.5 0 
-87.525 40.5 0 
-90.933 41 0 
-90.5543 41 0 
-90.1757 41 0 
-89.797 41 0 
-89.4183 41 0 
-89.0397 41 0 
-88.661 41 0 
-88.2823 41 0 
-87.9037 41 0 
-87.525 41 0 
-91.125 41.5 0 
-90.725 41.5 0 
-90.325 41.5 0 
-89.925 41.5 0 
-89.525 41.5 0 
-89.125 41.5 0 
-88.725 41.5 0 
-88.325 41.5 0 
-87.925 41.5 0 
-87.525 41.5 0 
-90.142 42 0 
-89.8651 42 0 
-89.5882 42 0 
-89.3113 42 0 
-89.0344 42 0 
-88.7576 42 0 
-88.4807 42 0 
-88.2038 42 0 
-87.9269 42 0 
-87.65 42 0 
-90.65 42.508 0 
-90.3333 42.508 0 
-90.0167 42.508 0 
-89.7 42.508 0 
-89.3833 42.508 0 
-89.0667 42.508 0 
-88.75 42.508 0 
-88.4333 42.508 0 
-88.1167 42.508 0 
-87.8 42.508 0 
-89.3 37 0 
-89.2111 37 0 
-89.1222 37 0 
-89.0333 37 0 
-88.9444 37 0 
-88.8556 37 0 
-88.7667 37 0 
-88.6778 37 0 
-88.5889 37 0 
-88.5 37 0 
-89.5 37.5 0 
-89.3408 37.5 0 
-89.1816 37.5 0 
-89.0223 37.5 0 
-88.8631 37.5 0 
-88.7039 37.5 0 
-88.5447 37.5 0 
-88.3854 37.5 0 
-88.2262 37.5 0 
-88.067 37.5 0 
-90.05 38 0 
-89.825 38 0 
-89.6 38 0 
-89.375 38 0 
-89.15 38 0 
-88.925 38 0 
-88.7 38 0 
-88.475 38 0 
-88.25 38 0 
-88.025 38 0 
-90.267 38.5 0 
-89.9799 38.5 0 
-89.6928 38.5 0 
-89.4057 38.5 0 
-89.1186 38.5 0 
-88.8314 38.5 0 
-88.5443 38.5 0 
-88.2572 38.5 0 
-87.9701 38.5 0 
-87.683 38.5 0 
-90.683 39 0 
-90.3386 39 0 
-89.9941 39 0 
-89.6497 39 0 
-89.3052 39 0 
-88.9608 39 0 
-88.6163 39 0 
-88.2719 39 0 
-87.9274 39 0 
-87.583 39 0 
-91.067 39.5 0 
-90.6743 39.5 0 
-90.2817 39.5 0 
-89.889 39.5 0 
-89.4963 39.5 0 
-89.1037 39.5 0 
-88.711 39.5 0 
-88.3183 39.5 0 
-87.9257 39.5 0 
-87.533 39.5 0 
-91.467 40 0 
-91.0299 40 0 
-90.5928 40 0 
-90.1557 40 0 
-89.7186 40 0 
-89.2814 40 0 
-88.8443 40 0 
-88.4072 40 0 
-87.9701 40 0 
-87.533 40 0 
-91.367 40.5 0 
-90.9401 40.5 0 
-90.5132 40.5 0 
-90.0863 40.5 0 
-89.6594 40.5 0 
-89.2326 40.5 0 
-88.8057 40.5 0 
-88.3788 40.5 0 
-87.9519 40.5 0 
-87.525 40.5 0 
-90.933 41 0 
-90.5543 41 0 
-90.1757 41 0 
-89.797 41 0 
-89.4183 41 0 
-89.0397 41 0 
-88.661 41 0 
-88.2823 41 0 
-87.9037 41 0 
-87.525 41 0 
-91.125 41.5 0 
-90.725 41.5 0 
-90.325 41.5 0 
-89.925 41.5 0 
-89.525 41.5 0 
-89.125 41.5 0 
-88.725 41.5 0 
-88.325 41.5 0 
-87.925 41.5 0 
-87.525 41.5 0 
-90.142 42 0 
-89.8651 42 0 
-89.5882 42 0 
-89.3113 42 0 
-89.0344 42 0 
-88.7576 42 0 
-88.4807 42 0 
-88.2038 42 0 
-87.9269 42 0 
-87.65 42 0 
-90.65 42.508 0 
-90.3333 42.508 0 
-90.0167 42.508 0 
-89.7 42.508 0 
-89.3833 42.508 0 
-89.0667 42.508 0 
-88.75 42.508 0 
-88.4333 42.508 0 
-88.1167 42.508 0 
-87.8 42.508 0 
-89.3 37 0 
-89.2111 37 0 
-89.1222 37 0 
-89.0333 37 0 
-88.9444 37 0 
-88.8556 37 0 
-88.7667 37 0 
-88.6778 37 0 
-88.5889 37 0 
-88.5 37 0 
-89.5 37.5 0 
-89.3408 37.5 0 
-89.1816 37.5 0 
-89.0223 37.5 0 
-88.8631 37.5 0 
-88.7039 37.5 0 
-88.5447 37.5 0 
-88.3854 37.5 0 
-88.2262 37.5 0 
-88.067 37.5 0 
-90.05 38 0 
-89.825 38 0 
-89.6 38 0 
-89.375 38 0 
-89.15 38 0 
-88.925 38 0 
-88.7 38 0 
-88.475 38 0 
-88.25 38 0 
-88.025 38 0 
-90.267 38.5 0 
-89.9799 38.5 0 
-89.6928 38.5 0 
-89.4057 38.5 0 
-89.1186 38.5 0 
-88.8314 38.5 0 
-88.5443 38.5 0 
-88.2572 38.5 0 
-87.9701 38.5 0 
-87.683 38.5 0 
-90.683 39 0 
-90.3386 39 0 
-89.9941 39 0 
-89.6497 39 0 
-89.3052 39 0 
-88.9608 39 0 
-88.6163 39 0 
-88.2719 39 0 
-87.9274 39 0 
-87.583 39 0 
-91.067 39.5 0 
-90.6743 39.5 0 
-90.2817 39.5 0 
-89.889 39.5 0 
-89.4963 39.5 0 
-89.1037 39.5 0 
-88.711 39.5 0 
-88.3183 39.5 0 
-87.9257 39.5 0 
-87.533 39.5 0 
-91.467 40 0 
-91.0299 40 0 
-90.5928 40 0 
-90.1557 40 0 
-89.7186 40 0 
-89.2814 40 0 
-88.8443 40 0 
-88.4072 40 0 
-87.9701 40 0 
-87.533 40 0 
-91.367 40.5 0 
-90.9401 40.5 0 
-90.5132 40.5 0 
-90.0863 40.5 0 
-89.6594 40.5 0 
-89.2326 40.5 0 
-88.8057 40.5 0 
-88.3788 40.5 0 
-87.9519 40.5 0 
-87.525 40.5 0 
-90.933 41 0 
-90.5543 41 0 
-90.1757 41 0 
-89.797 41 0 
-89.4183 41 0 
-89.0397 41 0 
-88.661 41 0 
-88.2823 41 0 
-87.9037 41 0 
-87.525 41 0 
-91.125 41.5 0 
-90.725 41.5 0 
-90.325 41.5 0 
-89.925 41.5 0 
-89.525 41.5 0 
-89.125 41.5 0 
-88.725 41.5 0 
-88.325 41.5 0 
-87.925 41.5 0 
-87.525 41.5 0 
-90.142 42 0 
-89.8651 42 0 
-89.5882 42 0 
-89.3113 42 0 
-89.0344 42 0 
-88.7576 42 0 
-88.4807 42 0 
-88.2038 42 0 
-87.9269 42 0 
-87.65 42 0 
-90.65 42.508 0 
-90.3333 42.508 0 
-90.0167 42.508 0 
-89.7 42.508 0 
-89.3833 42.508 0 
-89.0667 42.508 0 
-88.75 42.508 0 
-88.4333 42.508 0 
-88.1167 42.508 0 
-87.8 42.508 0 
-89.3 37 0 
-89.2111 37 0 
-89.1222 37 0 
-89.0333 37 0 
-88.9444 37 0 
-88.8556 37 0 
-88.7667 37 0 
-88.6778 37 0 
-88.5889 37 0 
-88.5 37 0 
-89.5 37.5 0 
-89.3408 37.5 0 
-89.1816 37.5 0 
-89.0223 37.5 0 
-88.8631 37.5 0 
-88.7039 37.5 0 
-88.5447 37.5 0 
-88.3854 37.5 0 
-88.2262 37.5 0 
-88.067 37.5 0 
-90.05 38 0 
-89.825 38 0 
-89.6 38 0 
-89.375 38 0 
-89.15 38 0 
-88.925 38 0 
-88.7 38 0 
-88.475 38 0 
-88.25 38 0 
-88.025 38 0 
-90.267 38.5 0 
-89.9799 38.5 0 
-89.6928 38.5 0 
-89.4057 38.5 0 
-89.1186 38.5 0 
-88.8314 38.5 0 
-88.5443 38.5 0 
-88.2572 38.5 0 
-87.9701 38.5 0 
-87.683 38.5 0 
-90.683 39 0 
-90.3386 39 0 
-89.9941 39 0 
-89.6497 39 0 
-89.3052 39 0 
-88.9608 39 0 
-88.6163 39 0 
-88.2719 39 0 
-87.9274 39 0 
-87.583 39 0 
-91.067 39.5 0 
-90.6743 39.5 0 
-90.2817 39.5 0 
-89.889 39.5 0 
-89.4963 39.5 0 
-89.1037 39.5 0 
-88.711 39.5 0 
-88.3183 39.5 0 
-87.9257 39.5 0 
-87.533 39.5 0 
-91.467 40 0 
-91.0299 40 0 
-90.5928 40 0 
-90.1557 40 0 
-89.7186 40 0 
-89.2814 40 0 
-88.8443 40 0 
-88.4072 40 0 
-87.9701 40 0 
-87.533 40 0 
-91.367 40.5 0 
-90.9401 40.5 0 
-90.5132 40.5 0 
-90.0863 40.5 0 
-89.6594 40.5 0 
-89.2326 40.5 0 
-88.8057 40.5 0 
-88.3788 40.5 0 
-87.9519 40.5 0 
-87.525 40.5 0 
-90.933 41 0 
-90.5543 41 0 
-90.1757 41 0 
-89.797 41 0 
-89.4183 41 0 
-89.0397 41 0 
-88.661 41 0 
-88.2823 41 0 
-87.9037 41 0 
-87.525 41 0 
-91.125 41.5 0 
-90.725 41.5 0 
-90.325 41.5 0 
-89.925 41.5 0 
-89.525 41.5 0 
-89.125 41.5 0 
-88.725 41.5 0 
-88.325 41.5 0 
-87.925 41.5 0 
-87.525 41.5 0 
-90.142 42 0 
-89.8651 42 0 
-89.5882 42 0 
-89.3113 42 0 
-89.0344 42 0 
-88.7576 42 0 
-88.4807 42 0 
-88.2038 42 0 
-87.9269 42 0 
-87.65 42 0 
-90.65 42.508 0 
-90.3333 42.508 0 
-90.0167 42.508 0 
-89.7 42.508 0 
-89.3833 42.508 0 
-89.0667 42.508 0 
-88.75 42.508 0 
-88.4333 42.508 0 
-88.1167 42.508 0 
-87.8 42.508 0 
-89.3 37 0 
-89.2111 37 0 
-89.1222 37 0 
-89.0333 37 0 
-88.9444 37 0 
-88.8556 37 0 
-88.7667 37 0 
-88.6778 37 0 
-88.5889 37 0 
-88.5 37 0 
-89.5 37.5 0 
-89.3408 37.5 0 
-89.1816 37.5 0 
-89.0223 37.5 0 
-88.8631 37.5 0 
-88.7039 37.5 0 
-88.5447 37.5 0 
-88.3854 37.5 0 
-88.2262 37.5 0 
-88.067 37.5 0 
-90.05 38 0 
-89.825 38 0 
-89.6 38 0 
-89.375 38 0 
-89.15 38 0 
-88.925 38 0 
-88.7 38 0 
-88.475 38 0 
-88.25 38 0 
-88.025 38 0 
-90.267 38.5 0 
-89.9799 38.5 0 
-89.6928 38.5 0 
-89.4057 38.5 0 
-89.1186 38.5 0 
-88.8314 38.5 0 
-88.5443 38.5 0 
-88.2572 38.5 0 
-87.9701 38.5 0 
-87.683 38.5 0 
-90.683 39 0 
-90.3386 39 0 
-89.9941 39 0 
-89.6497 39 0 
-89.3052 39 0 
-88.9608 39 0 
-88.6163 39 0 
-88.2719 39 0 
-87.9274 39 0 
-87.583 39 0 
-91.067 39.5 0 
-90.6743 39.5 0 
-90.2817 39.5 0 
-89.889 39.5 0 
-89.4963 39.5 0 
-89.1037 39.5 0 
-88.711 39.5 0 
-88.3183 39.5 0 
-87.9257 39.5 0 
-87.533 39.5 0 
-91.467 40 0 
-91.0299 40 0 
-90.5928 40 0 
-90.1557 40 0 
-89.7186 40 0 
-89.2814 40 0 
-88.8443 40 0 
-88.4072 40 0 
-87.9701 40 0 
-87.533 40 0 
-91.367 40.5 0 
-90.9401 40.5 0 
-90.5132 40.5 0 
-90.0863 40.5 0 
-89.6594 40.5 0 
-89.2326 40.5 0 
-88.8057 40.5 0 
-88.3788 40.5 0 
-87.9519 40.5 0 
-87.525 40.5 0 
-90.933 41 0 
-90.5543 41 0 
-90.1757 41 0 
-89.797 41 0 
-89.4183 41 0 
-89.0397 41 0 
-88.661 41 0 
-88.2823 41 0 
-87.9037 41 0 
-87.525 41 0 
-91.125 41.5 0 
-90.725 41.5 0 
-90.325 41.5 0 
-89.925 41.5 0 
-89.525 41.5 0 
-89.125 41.5 0 
-88.725 41.5 0 
-88.325 41.5 0 
-87.925 41.5 0 
-87.525 41.5 0 
-90.142 42 0 
-89.8651 42 0 
-89.5882 42 0 
-89.3113 42 0 
-89.0344 42 0 
-88.7576 42 0 
-88.4807 42 0 
-88.2038 42 0 
-87.9269 42 0 
-87.65 42 0 
-90.65 42.508 0 
-90.3333 42.508 0 
-90.0167 42.508 0 
-89.7 42.508 0 
-89.3833 42.508 0 
-89.0667 42.508 0 
-88.75 42.508 0 
-88.4333 42.508 0 
-88.1167 42.508 0 
-87.8 42.508 0 
-89.3 37 0 
-89.2111 37 0 
-89.1222 37 0 
-89.0333 37 0 
-88.9444 37 0 
-88.8556 37 0 
-88.7667 37 0 
-88.6778 37 0 
-88.5889 37 0 
-88.5 37 0 
-89.5 37.5 0 
-89.3408 37.5 0 
-89.1816 37.5 0 
-89.0223 37.5 0 
-88.8631 37.5 0 
-88.7039 37.5 0 
-88.5447 37.5 0 
-88.3854 37.5 0 
-88.2262 37.5 0 
-88.067 37.5 0 
-90.05 38 0 
-89.825 38 0 
-89.6 38 0 
-89.375 38 0 
-89.15 38 0 
-88.925 38 0 
-88.7 38 0 
-88.475 38 0 
-88.25 38 0 
-88.025 38 0 
-90.267 38.5 0 
-89.9799 38.5 0 
[...]
POINT_DATA 3360
VECTORS WindVector float
0.0463555 -0.072964 0 
0.0473701 -0.0706579 0 
0.0483919 -0.0679028 0 
0.0494508 -0.0647904 0 
0.0505253 -0.0615471 0 
0.0515109 -0.0585282 0 
0.0522289 -0.0561447 0 
0.0524894 -0.0547306 0 
0.0521788 -0.0544189 0 
0.05131 -0.0551087 0 
0.0511217 -0.0854009 0 
0.0559884 -0.0872737 0 
0.0571333 -0.0851434 0 
0.055511 -0.0708942 0 
0.0596759 -0.0467922 0 
0.0675503 -0.0283955 0 
0.0634959 -0.0350236 0 
0.0549855 -0.047727 0 
0.0478114 -0.0577635 0 
0.0428962 -0.0643 0 
0.0313208 -0.095713 0 
0.0344574 -0.0935955 0 
0.0392954 -0.0882506 0 
0.0439066 -0.0833447 0 
0.0395443 -0.0739286 0 
0.0295151 -0.0613518 0 
0.0332617 -0.0664766 0 
0.0343134 -0.074136 0 
0.0331628 -0.0777861 0 
0.0326592 -0.0775349 0 
0.0256261 -0.104732 0 
0.0294913 -0.12152 0 
0.0293626 -0.113576 0 
0.0301672 -0.0878129 0 
0.0307145 -0.0758737 0 
0.0300499 -0.0750241 0 
0.0278738 -0.0869761 0 
0.0271445 -0.0873986 0 
0.0279172 -0.0768334 0 
0.028688 -0.0777354 0 
0.00905524 -0.0888431 0 
0.0141366 -0.0913485 0 
0.018584 -0.0938466 0 
0.0208441 -0.0887623 0 
0.0271345 -0.0791406 0 
0.0368553 -0.0699022 0 
0.0302988 -0.0770649 0 
0.0276909 -0.0771188 0 
0.027475 -0.0763966 0 
0.0278496 -0.0796584 0 
-0.00868037 -0.0869586 0 
-0.00843216 -0.0860023 0 
0.000632764 -0.0825925 0 
0.00197837 -0.0768439 0 
0.0018089 -0.0738463 0 
0.0183362 -0.0805837 0 
0.0248877 -0.0850642 0 
0.0260391 -0.0879187 0 
0.0264709 -0.0860462 0 
0.0274555 -0.0849087 0 
-0.00489845 -0.0893975 0 
-0.0133674 -0.0876373 0 
-0.0116074 -0.0846211 0 
-0.0146447 -0.0700732 0 
-0.00182537 -0.0757062 0 
0.00960652 -0.082058 0 
0.0222573 -0.0921453 0 
0.0330961 -0.123516 0 
0.0235601 -0.0871143 0 
0.0286877 -0.0881324 0 
-0.00697478 -0.0958937 0 
-0.0124891 -0.100538 0 
-0.00995454 -0.0929601 0 
-0.00357172 -0.0794294 0 
0.00886213 -0.0865637 0 
0.0132336 -0.0902182 0 
0.0251452 -0.0919595 0 
0.0355376 -0.0945523 0 
0.0398298 -0.0924566 0 
0.0365939 -0.0904195 0 
-0.0236172 -0.119312 0 
-0.0228991 -0.11841 0 
-3.67523e-005 -0.0922123 0 
0.00930386 -0.0851821 0 
0.0119865 -0.0904576 0 
0.0195679 -0.090101 0 
0.0390844 -0.0923611 0 
0.0822298 -0.101453 0 
0.0688289 -0.0978986 0 
0.0457709 -0.0916379 0 
-0.00605081 -0.100922 0 
-0.00693098 -0.101881 0 
-0.000240956 -0.0951756 0 
0.00627939 -0.0898057 0 
0.0101819 -0.0887774 0 
0.0121706 -0.089503 0 
0.0204583 -0.0881743 0 
0.0435471 -0.0840352 0 
0.0470856 -0.087122 0 
0.0414478 -0.0879623 0 
0.0038806 -0.089108 0 
0.00252299 -0.0875691 0 
0.00261212 -0.0872462 0 
0.00617241 -0.0884336 0 
0.00276967 -0.0910563 0 
0.00515318 -0.0902054 0 
0.0498716 -0.0725387 0 
0.0520957 -0.0722967 0 
0.0425266 -0.0793365 0 
0.0379183 -0.08336 0 
0.00596958 -0.0898492 0 
0.00528728 -0.0886546 0 
0.00289502 -0.0873558 0 
0.000306081 -0.0865892 0 
0.00445714 -0.0868973 0 
0.011965 -0.0869007 0 
0.0199495 -0.085209 0 
0.0289329 -0.0824737 0 
0.0329586 -0.0817965 0 
0.0327256 -0.0830329 0 
0.0107534 -0.0975831 0 
0.0120095 -0.096048 0 
0.0130022 -0.0937783 0 
0.0138284 -0.0909568 0 
0.0145504 -0.0878914 0 
0.0151363 -0.0849609 0 
0.0154422 -0.0825175 0 
0.0152679 -0.0807813 0 
0.0144601 -0.0797821 0 
0.012991 -0.0793849 0 
0.0267406 -0.124554 0 
0.037509 -0.135611 0 
0.0392589 -0.134712 0 
0.0309869 -0.111983 0 
0.0274295 -0.0817195 0 
0.0319422 -0.0643471 0 
0.028165 -0.0688369 0 
0.0190642 -0.0758472 0 
0.0101943 -0.0799828 0 
0.00305676 -0.0816303 0 
-0.0198376 -0.0943643 0 
-0.0113675 -0.0996873 0 
0.00267572 -0.106859 0 
0.0174026 -0.115048 0 
0.018328 -0.107225 0 
0.0124442 -0.0909259 0 
0.00920495 -0.0911934 0 
0.00445474 -0.0922494 0 
0.000253154 -0.0920509 0 
-0.00486527 -0.0889586 0 
-0.0341987 -0.0901057 0 
-0.0310002 -0.108196 0 
-0.0285234 -0.103195 0 
-0.0160794 -0.0906913 0 
-0.00619829 -0.0882211 0 
-0.00321276 -0.0892753 0 
-0.000419349 -0.0987213 0 
-0.00155023 -0.099455 0 
-0.0116086 -0.0888879 0 
-0.0180275 -0.0834603 0 
-0.0575532 -0.0524652 0 
-0.0505743 -0.0626062 0 
-0.0435398 -0.0722807 0 
-0.0379257 -0.0732543 0 
-0.0234591 -0.077219 0 
0.000932831 -0.0890756 0 
-0.0175492 -0.0811399 0 
-0.0213373 -0.0814378 0 
-0.0231554 -0.0805161 0 
-0.0328365 -0.0738958 0 
-0.0731565 -0.0284295 0 
-0.0721019 -0.0286978 0 
-0.0676886 -0.0373272 0 
-0.0600821 -0.0430407 0 
-0.0555516 -0.0457588 0 
-0.0506922 -0.0571366 0 
-0.0551615 -0.0585608 0 
-0.0626878 -0.0543519 0 
-0.0592885 -0.0553121 0 
-0.0576326 -0.0576723 0 
-0.0822074 -0.0292197 0 
-0.0783864 -0.0227176 0 
-0.0795808 -0.0215927 0 
-0.0828205 -0.00831289 0 
-0.074062 -0.0291896 0 
-0.0755378 -0.0384861 0 
-0.0860538 -0.0423983 0 
-0.141446 -0.0435146 0 
-0.0721416 -0.0345159 0 
-0.0767095 -0.0463378 0 
-0.100295 -0.025295 0 
-0.112527 -0.0203013 0 
-0.10592 -0.0180643 0 
-0.0922155 -0.0147615 0 
-0.102852 -0.0192008 0 
-0.104256 -0.026688 0 
-0.100154 -0.0373779 0 
-0.104944 -0.041147 0 
-0.104723 -0.0434735 0 
-0.0970162 -0.0453539 0 
-0.148964 -0.0135706 0 
-0.148303 -0.0132904 0 
-0.107186 -0.0196902 0 
-0.099452 -0.0191489 0 
-0.110023 -0.0219497 0 
-0.110265 -0.0291723 0 
-0.123047 -0.0397906 0 
-0.169368 -0.0613125 0 
-0.150518 -0.0550951 0 
-0.116202 -0.0459119 0 
-0.114893 -0.0225564 0 
-0.118655 -0.0206153 0 
-0.109387 -0.0216008 0 
-0.103583 -0.0222473 0 
-0.108242 -0.0230195 0 
-0.124723 -0.0233429 0 
-0.131597 -0.0237657 0 
-0.122116 -0.0280834 0 
-0.122124 -0.0356045 0 
-0.113343 -0.0385862 0 
-0.0966596 -0.019542 0 
-0.0921479 -0.01585 0 
-0.0936182 -0.0150332 0 
-0.113515 -0.0184229 0 
-0.144659 -0.0182078 0 
-0.149644 -0.0171962 0 
-0.109914 -0.0129569 0 
-0.107294 -0.0141667 0 
-0.110643 -0.0228525 0 
-0.109503 -0.0295058 0 
-0.096892 -0.0243236 0 
-0.0948871 -0.0211314 0 
-0.0904488 -0.0163133 0 
-0.0862043 -0.012489 0 
-0.0949029 -0.0158071 0 
-0.110576 -0.0200524 0 
-0.116521 -0.0212233 0 
-0.113648 -0.0216438 0 
-0.110264 -0.0235781 0 
-0.107593 -0.0272293 0 
0.139379 -0.0959428 0 
0.138107 -0.0944842 0 
0.136556 -0.092404 0 
0.134792 -0.0898476 0 
0.132953 -0.0870771 0 
0.131238 -0.084435 0 
0.129861 -0.0822627 0 
0.128984 -0.0807967 0 
0.128655 -0.0800971 0 
0.128808 -0.0800531 0 
0.148935 -0.117649 0 
0.150903 -0.125365 0 
0.149692 -0.124278 0 
0.140262 -0.105952 0 
0.125946 -0.0797353 0 
0.116165 -0.0630727 0 
0.119375 -0.0680152 0 
0.125277 -0.0765037 0 
0.129677 -0.0823579 0 
0.132276 -0.0855518 0 
0.155734 -0.102792 0 
0.154713 -0.106586 0 
0.150817 -0.109295 0 
0.146873 -0.112919 0 
0.138 -0.106466 0 
0.125388 -0.0945884 0 
0.131352 -0.0946694 0 
0.137892 -0.0957681 0 
0.139614 -0.0968705 0 
0.137934 -0.0965334 0 
0.162845 -0.103357 0 
0.178627 -0.130685 0 
0.172385 -0.122551 0 
0.154123 -0.101828 0 
0.147264 -0.098024 0 
0.144631 -0.0984873 0 
0.147303 -0.103008 0 
0.142818 -0.106993 0 
0.1276 -0.110742 0 
0.131001 -0.102786 0 
0.144915 -0.0505241 0 
0.148909 -0.0662518 0 
0.153461 -0.0809685 0 
0.15321 -0.0836294 0 
0.160292 -0.0921514 0 
0.185771 -0.112064 0 
0.156177 -0.101299 0 
0.132381 -0.106894 0 
0.12707 -0.108105 0 
0.132313 -0.097946 0 
0.143049 -0.0151749 0 
0.14285 -0.0174286 0 
0.139306 -0.0335235 0 
0.137476 -0.0429097 0 
0.137499 -0.0468927 0 
0.147047 -0.072666 0 
0.149208 -0.0904099 0 
0.145338 -0.0989594 0 
0.140113 -0.0960045 0 
0.13728 -0.0894256 0 
0.140401 -0.00876445 0 
0.143709 -0.00516246 0 
0.140331 -0.00766853 0 
0.127563 -0.00906719 0 
0.132686 -0.0282896 0 
0.136857 -0.0458925 0 
0.146296 -0.0839014 0 
0.184363 -0.158018 0 
0.138519 -0.100172 0 
0.138965 -0.0852407 0 
0.142512 0.0126715 0 
0.14841 0.0298688 0 
0.141576 0.0182643 0 
0.12938 -0.00410413 0 
0.133278 -0.011307 0 
0.135246 -0.027755 0 
0.138567 -0.0621337 0 
0.14966 -0.0877211 0 
0.149415 -0.0830174 0 
0.141049 -0.0730318 0 
0.165385 0.0803996 0 
0.164201 0.0788671 0 
0.131881 0.0140467 0 
0.125474 -0.00291493 0 
0.126754 -0.0128301 0 
0.11328 -0.0233513 0 
0.126487 -0.0426532 0 
0.190227 -0.0765305 0 
0.170862 -0.0682321 0 
0.139057 -0.0551926 0 
0.135472 0.0325023 0 
0.13412 0.0384585 0 
0.11809 0.0262299 0 
0.0997021 0.0164481 0 
0.0788973 0.00937048 0 
0.0311386 0.00169277 0 
0.0193367 0.00425219 0 
0.0797712 0.0119345 0 
0.107408 -0.0118477 0 
0.11355 -0.0259552 0 
0.0694068 0.0530755 0 
0.0459312 0.0789263 0 
0.0346535 0.0825431 0 
0.015576 0.0428182 0 
-0.0508064 0.0107339 0 
-0.0622057 0.0108635 0 
0.0519762 0.0750139 0 
0.0632791 0.0734034 0 
0.0721472 0.0342327 0 
0.0856206 0.00735602 0 
0.087166 0.0312224 0 
0.0691918 0.0497494 0 
0.045734 0.0805859 0 
0.029661 0.106228 0 
0.0323867 0.0791043 0 
0.0287186 0.0401493 0 
0.0302954 0.0286315 0 
0.0462689 0.031009 0 
0.0613449 0.0271144 0 
0.0738712 0.0145187 0 
0.155968 0.0679828 0 
0.153519 0.069202 0 
0.150846 0.0708067 0 
0.147962 0.0727329 0 
0.145009 0.0748215 0 
0.142293 0.0768209 0 
0.140239 0.0784381 0 
0.139248 0.079434 0 
0.139527 0.0797129 0 
0.141015 0.0793469 0 
0.156429 0.058237 0 
0.151151 0.0560387 0 
0.14847 0.0569525 0 
0.142853 0.0657826 0 
0.125771 0.0830048 0 
0.107502 0.0974767 0 
0.115573 0.0922527 0 
0.132189 0.0827935 0 
0.14623 0.076043 0 
0.15603 0.0722126 0 
0.192067 0.0660483 0 
0.186831 0.0638452 0 
0.175314 0.0601178 0 
0.163404 0.0550475 0 
0.157739 0.0479189 0 
0.154667 0.0373915 0 
0.159204 0.0492372 0 
0.16673 0.0590666 0 
0.171564 0.0611802 0 
0.173883 0.0619143 0 
0.205895 0.068534 0 
0.222019 0.0663384 0 
0.214884 0.0662915 0 
0.19351 0.0640589 0 
0.185706 0.0595854 0 
0.182944 0.0574176 0 
0.182787 0.0578825 0 
0.181087 0.0550298 0 
0.177764 0.0501042 0 
0.181809 0.0570512 0 
0.188895 0.0730642 0 
0.193788 0.0727956 0 
0.19892 0.07201 0 
0.199613 0.0722545 0 
0.208353 0.0739681 0 
0.233942 0.0796404 0 
0.20742 0.0699838 0 
0.18818 0.0564941 0 
0.185097 0.0541511 0 
0.19224 0.0635145 0 
0.178599 0.0689071 0 
0.178029 0.0692092 0 
0.182704 0.0762999 0 
0.1833 0.0775989 0 
0.184159 0.0772259 0 
0.204488 0.0784863 0 
0.219319 0.0794617 0 
0.225279 0.0789489 0 
0.217656 0.0766387 0 
0.211483 0.0770422 0 
0.186494 0.076419 0 
0.177521 0.068432 0 
0.176429 0.0727339 0 
0.162497 0.084798 0 
0.178404 0.0819273 0 
0.195468 0.0830617 0 
0.232566 0.0881196 0 
0.331671 0.109048 0 
0.230017 0.079773 0 
0.225322 0.0866637 0 
0.198546 0.0847574 0 
0.205297 0.0881429 0 
0.194611 0.0882237 0 
0.173078 0.0867823 0 
0.180167 0.0872539 0 
0.196904 0.0884285 0 
0.225789 0.0952391 0 
0.249836 0.103012 0 
0.247009 0.106645 0 
0.2348 0.101609 0 
0.234575 0.0995861 0 
0.233051 0.099585 0 
0.191026 0.0903887 0 
0.176085 0.0883434 0 
0.188864 0.0888883 0 
0.200968 0.0941328 0 
0.231066 0.113562 0 
0.297394 0.16659 0 
0.276925 0.148513 0 
0.240809 0.116897 0 
0.206739 0.0927009 0 
0.207307 0.094101 0 
0.195358 0.0930578 0 
0.184897 0.0923187 0 
0.181853 0.0908107 0 
0.176732 0.0851437 0 
0.182398 0.0900772 0 
0.213882 0.11553 0 
0.227575 0.120071 0 
0.224521 0.112565 0 
0.175723 0.0993105 0 
0.16558 0.1042 0 
0.162557 0.104175 0 
0.165282 0.0914769 0 
0.15287 0.0713293 0 
0.152232 0.0703032 0 
0.199634 0.119007 0 
0.204001 0.121702 0 
0.205043 0.113039 0 
0.20831 0.108574 0 
0.18388 0.0954084 0 
0.176455 0.099057 0 
0.165697 0.104884 0 
0.157544 0.109673 0 
0.163797 0.103763 0 
0.172412 0.0948943 0 
0.179648 0.0948481 0 
0.189085 0.101244 0 
0.195628 0.104537 0 
0.199578 0.103943 0 
0.00738527 0.0165199 0 
0.00727947 0.0175601 0 
0.00722931 0.0184376 0 
0.00720076 0.0191996 0 
0.00717275 0.0198681 0 
0.00716345 0.0204073 0 
0.00724166 0.0207184 0 
0.00750676 0.0206752 0 
0.00804341 0.020186 0 
0.00888148 0.0192391 0 
0.000512816 0.024999 0 
-0.0019608 0.0313431 0 
-0.0021235 0.0327906 0 
0.000953019 0.029814 0 
0.00229244 0.0290203 0 
0.000220672 0.0316084 0 
0.00218061 0.0294036 0 
0.00728815 0.0236327 0 
0.0125582 0.01754 0 
0.0168031 0.0124252 0 
-0.00585367 -0.0115171 0 
-0.00515067 -0.00434179 0 
-0.000836385 0.00873526 0 
0.0014086 0.0229454 0 
0.0025328 0.0336209 0 
0.00228186 0.044897 0 
0.0100092 0.0307526 0 
0.0212075 0.0149172 0 
0.0267465 0.00780107 0 
0.028313 0.00414158 0 
-0.0156141 -0.0264112 0 
-0.0437616 -0.0322776 0 
-0.0315908 -0.0266869 0 
0.00580519 -0.00499069 0 
0.0197603 0.00920451 0 
0.0251473 0.0115165 0 
0.0357204 0.00259428 0 
0.038386 -0.000387607 0 
0.0362615 -0.00288701 0 
0.0355297 -0.00516391 0 
0.0149973 -0.0362341 0 
0.00932494 -0.0326948 0 
0.00405759 -0.029646 0 
0.0131896 -0.0245759 0 
0.0343744 -0.0133805 0 
0.0574209 -0.00240665 0 
0.0434036 -0.00754522 0 
0.039093 -0.00798271 0 
0.0389562 -0.00864515 0 
0.0400917 -0.0129522 0 
0.0178452 -0.0505603 0 
0.017631 -0.0498152 0 
0.0223939 -0.042374 0 
0.0263209 -0.0418404 0 
0.0291514 -0.0423978 0 
0.0391457 -0.0289583 0 
0.0481875 -0.0267817 0 
0.0531389 -0.0294525 0 
0.0514257 -0.0276179 0 
0.0488378 -0.0256022 0 
0.0249135 -0.0510157 0 
0.0180263 -0.054798 0 
0.0203892 -0.0521101 0 
0.0232691 -0.0431948 0 
0.029543 -0.0453245 0 
0.0377409 -0.0430731 0 
0.055265 -0.0410397 0 
0.0877291 -0.0548192 0 
0.0620437 -0.0396195 0 
0.0572474 -0.0343935 0 
0.0320783 -0.0576735 0 
0.0339888 -0.0637611 0 
0.0330081 -0.0587763 0 
0.0304331 -0.0503464 0 
0.0360136 -0.0551847 0 
0.0419271 -0.0516233 0 
0.0567129 -0.0445046 0 
0.0692315 -0.041244 0 
0.0700562 -0.0384042 0 
0.0640326 -0.036967 0 
0.0427535 -0.0810086 0 
0.0428077 -0.0805927 0 
0.0378601 -0.0595961 0 
0.0369629 -0.0564071 0 
0.041132 -0.0558747 0 
0.0509403 -0.0516657 0 
0.0673873 -0.0445916 0 
0.0972664 -0.0314418 0 
0.0877503 -0.0344142 0 
0.070286 -0.0383633 0 
0.0400767 -0.0635823 0 
0.041225 -0.065765 0 
0.041819 -0.0615097 0 
0.0436582 -0.0586743 0 
0.048196 -0.0587776 0 
0.0573157 -0.0625168 0 
0.0651066 -0.0616966 0 
0.072208 -0.0498771 0 
0.0727224 -0.0447981 0 
0.0674334 -0.0429409 0 
0.046236 -0.0631904 0 
0.0477983 -0.0671399 0 
0.0492989 -0.0684356 0 
0.0549097 -0.0674214 0 
0.0631751 -0.0741547 0 
0.0662247 -0.0748255 0 
0.0744802 -0.0531359 0 
0.0743899 -0.051135 0 
0.06934 -0.0503578 0 
0.0656985 -0.0480107 0 
0.0448422 -0.0584766 0 
0.0465097 -0.0616852 0 
0.0478249 -0.0666988 0 
0.048191 -0.070711 0 
0.0506682 -0.0676297 0 
0.0563222 -0.0636748 0 
0.0610833 -0.060615 0 
0.064091 -0.0563847 0 
0.0644638 -0.0530999 0 
0.0628251 -0.0505263 0 
-0.0144934 0.0556357 0 
-0.0156999 0.0544719 0 
-0.0168112 0.0531443 0 
-0.0178595 0.0516898 0 
-0.0188379 0.0502028 0 
-0.0196735 0.0488325 0 
-0.02023 0.0477502 0 
-0.0203557 0.0470926 0 
-0.0199517 0.0469096 0 
-0.0190161 0.0471525 0 
-0.021662 0.0607417 0 
-0.0267747 0.0607902 0 
-0.0282299 0.059626 0 
-0.0272785 0.0535364 0 
-0.0291594 0.0434241 0 
-0.0331285 0.035901 0 
-0.0307291 0.0385424 0 
-0.0249302 0.0435467 0 
-0.0190165 0.0474479 0 
-0.0139352 0.0499548 0 
0.00209408 0.0737475 0 
-0.00349408 0.071266 0 
-0.0116066 0.0655578 0 
-0.0215265 0.0600381 0 
-0.0312108 0.0530313 0 
-0.0427162 0.0444461 0 
-0.0318681 0.0483259 0 
-0.0221578 0.0523567 0 
-0.0175576 0.0537058 0 
-0.0124076 0.0534909 0 
0.00942784 0.0824948 0 
-0.0017252 0.0954343 0 
4.31499e-005 0.0890887 0 
0.000312109 0.0686504 0 
-0.00715123 0.0592702 0 
-0.0121733 0.056222 0 
-0.0188427 0.0572572 0 
-0.0210163 0.055244 0 
-0.0143136 0.048831 0 
-0.00341894 0.0509303 0 
0.0357326 0.0731728 0 
0.0299898 0.0743278 0 
0.0244096 0.0757092 0 
0.0243366 0.071998 0 
0.0221667 0.0677781 0 
0.0187066 0.0723329 0 
0.0151545 0.0613678 0 
0.00175944 0.0506553 0 
0.000513407 0.0482714 0 
0.0156771 0.0511401 0 
0.0462354 0.0754408 0 
0.0458208 0.0747798 0 
0.0470553 0.0709796 0 
0.0523799 0.067448 0 
0.0557721 0.065705 0 
0.0470054 0.0630065 0 
0.0539637 0.0565902 0 
0.0639535 0.0493908 0 
0.0578166 0.048266 0 
0.0506894 0.0508804 0 
0.0544271 0.0773161 0 
0.0494967 0.0773377 0 
0.050859 0.0752618 0 
0.050281 0.0674227 0 
0.0585067 0.0670182 0 
0.064051 0.0642333 0 
0.0839616 0.0538234 0 
0.147744 0.0474355 0 
0.0949642 0.0348328 0 
0.0753968 0.0492311 0 
0.0685878 0.0850987 0 
0.0771217 0.0922053 0 
0.0720414 0.0850769 0 
0.0618133 0.0719606 0 
0.0734928 0.0715007 0 
0.0775928 0.0674802 0 
0.0857749 0.0586675 0 
0.0994605 0.052454 0 
0.0953462 0.0544526 0 
0.0835457 0.0565996 0 
0.103785 0.115168 0 
0.103404 0.114148 0 
0.0756486 0.0809648 0 
0.0712976 0.0727504 0 
0.0783069 0.0695143 0 
0.0790099 0.0643628 0 
0.0881762 0.0658645 0 
0.111603 0.0842286 0 
0.103337 0.077244 0 
0.0867735 0.0656883 0 
0.0808656 0.0892323 0 
0.0838255 0.0904208 0 
0.0781973 0.0804998 0 
0.0745037 0.0709205 0 
0.0748218 0.0633615 0 
0.0761455 0.0503944 0 
0.0783681 0.0491455 0 
0.0832832 0.0676868 0 
0.0856002 0.0694887 0 
0.081593 0.0663171 0 
0.0754706 0.069533 0 
0.0767284 0.0673227 0 
0.077107 0.0649557 0 
0.0759878 0.0537918 0 
0.0753558 0.0321945 0 
0.0755665 0.0299933 0 
0.0783128 0.0747576 0 
0.0785693 0.0772628 0 
0.078317 0.0699103 0 
0.0774882 0.0666439 0 
0.0724893 0.0706456 0 
0.0740559 0.0687274 0 
0.0762214 0.0675436 0 
0.077874 0.0675877 0 
0.0767139 0.0639229 0 
0.07541 0.0570513 0 
0.0754223 0.0563842 0 
0.0758524 0.0616914 0 
0.0757933 0.0647837 0 
0.0750335 0.0649017 0 
0.0871655 0.0688374 0 
0.0851919 0.0705219 0 
0.0830494 0.072483 0 
0.0807371 0.0746955 0 
0.0783588 0.0770269 0 
0.0761564 0.0792164 0 
0.0744734 0.0809185 0 
0.073637 0.0818179 0 
0.0738166 0.0817588 0 
0.0749586 0.0807987 0 
0.0864677 0.0660882 0 
0.0812836 0.0677822 0 
0.0791675 0.0692867 0 
0.0761845 0.0748785 0 
0.0630502 0.0903783 0 
0.0477066 0.106152 0 
0.0544667 0.0996563 0 
0.0679605 0.08702 0 
0.0788399 0.077037 0 
0.0860725 0.0704556 0 
0.116602 0.0628788 0 
0.112457 0.0633255 0 
0.103763 0.0622091 0 
0.0956185 0.0606386 0 
0.0977753 0.0538171 0 
0.106445 0.0421418 0 
0.100715 0.0521619 0 
0.0968726 0.0603938 0 
0.0968648 0.0610745 0 
0.0972681 0.0591997 0 
0.127597 0.0644421 0 
0.138716 0.0764803 0 
0.13347 0.0721658 0 
0.117919 0.0592769 0 
0.113359 0.0537991 0 
0.110271 0.0531645 0 
0.103064 0.0590366 0 
0.0982364 0.0571886 0 
0.0922899 0.0471341 0 
0.0979842 0.0492525 0 
0.119111 0.0431248 0 
0.12116 0.0497149 0 
0.123575 0.0555106 0 
0.122542 0.0554144 0 
0.123635 0.0561911 0 
0.133794 0.0632441 0 
0.11826 0.0550936 0 
0.100568 0.0468999 0 
0.0970957 0.0447533 0 
0.105486 0.0476261 0 
0.11703 0.0268719 0 
0.116287 0.0281136 0 
0.116071 0.0382557 0 
0.116993 0.0435753 0 
0.118148 0.0451825 0 
0.123126 0.04886 0 
0.12678 0.0503837 0 
0.126837 0.0492838 0 
0.121965 0.0479406 0 
0.119674 0.0478346 0 
0.121487 0.027413 0 
0.117586 0.0227759 0 
0.115115 0.0264567 0 
0.0988732 0.0377812 0 
0.113719 0.0392021 0 
0.122592 0.0408305 0 
0.13544 0.0469849 0 
0.18182 0.0633163 0 
0.126417 0.0446968 0 
0.128338 0.0474657 0 
0.130243 0.0228508 0 
0.135673 0.0182636 0 
0.127322 0.0230401 0 
0.112355 0.030389 0 
0.12315 0.025568 0 
0.1289 0.0307506 0 
0.135602 0.0430218 0 
0.142246 0.0514093 0 
0.140582 0.0528156 0 
0.136055 0.0499106 0 
0.15773 0.00472187 0 
0.156834 0.00509562 0 
0.128456 0.0217561 0 
0.121754 0.0237164 0 
0.128137 0.0251763 0 
0.130936 0.0310237 0 
0.141664 0.0450116 0 
0.169279 0.0770412 0 
0.159768 0.0675603 0 
0.142684 0.051833 0 
0.137148 0.0183186 0 
0.138326 0.0165622 0 
0.130953 0.0196917 0 
0.125187 0.0214511 0 
0.124751 0.0204204 0 
0.126079 0.0141988 0 
0.129679 0.0153853 0 
0.13909 0.0339322 0 
0.142092 0.042583 0 
0.138632 0.0430577 0 
0.120592 0.016471 0 
0.11603 0.0122666 0 
0.115239 0.0105202 0 
0.120155 0.00898388 0 
0.12203 -0.00328588 0 
0.123229 -0.00486547 0 
0.136406 0.0251138 0 
0.137295 0.0280854 0 
0.135539 0.0301696 0 
0.134638 0.0336316 0 
0.123495 0.0209936 0 
0.120409 0.0176915 0 
0.115722 0.0126657 0 
0.112037 0.00874972 0 
0.115982 0.0110362 0 
0.122341 0.0133899 0 
0.126613 0.0161239 0 
0.130006 0.0214351 0 
0.131551 0.0257961 0 
0.131658 0.0291687 0 
0.0608154 -0.0887407 0 
0.0598522 -0.0869466 0 
0.0588665 -0.0846396 0 
0.0578525 -0.0819227 0 
0.0568481 -0.0790242 0 
0.0559502 -0.0762847 0 
0.0553031 -0.0740853 0 
0.0550504 -0.0727268 0 
0.0552756 -0.0723218 0 
0.0559701 -0.0727728 0 
0.0576531 -0.103437 0 
0.055614 -0.107274 0 
0.0546795 -0.105774 0 
0.0531728 -0.0914624 0 
0.0485445 -0.0675935 0 
0.0435341 -0.0497286 0 
0.0458575 -0.0558874 0 
0.0509332 -0.0672217 0 
0.0557216 -0.0757172 0 
0.0596937 -0.0809613 0 
0.0605324 -0.0977091 0 
0.0584209 -0.0994802 0 
0.0579654 -0.100777 0 