# vtk DataFile Version 3.0
Autogenerated from january.txt by weatherdisplay
ASCII
DATASET STRUCTURED_GRID
DIMENSIONS 10 12 31
POINTS 3720 float
-89.3 37 0 
-89.2111 37 0 
-89.1222 37 0 
-89.0333 37 0 
-88.9444 37 0 
-88.8556 37 0 
-88.7667 37 0 
-88.6778 37 0 
-88.5889 37 0 
-88.5 37 0 
-89.5 37.5 0 
-89.3408 37.5 0 
-89.1816 37.5 0 
-89.0223 37.5 0 
-88.8631 37.5 0 
-88.7039 37.5 0 
-88.5447 37.5 0 
-88.3854 37.5 0 
-88.2262 37.5 0 
-88.067 37.5 0 
-90.05 38 0 
-89.825 38 0 
-89.6 38 0 
-89.375 38 0 
-89.15 38 0 
-88.925 38 0 
-88.7 38 0 
-88.475 38 0 
-88.25 38 0 
-88.025 38 0 
-90.267 38.5 0 
-89.9799 38.5 0 
-89.6928 38.5 0 
-89.4057 38.5 0 
-89.1186 38.5 0 
-88.8314 38.5 0 
-88.5443 38.5 0 
-88.2572 38.5 0 
-87.9701 38.5 0 
-87.683 38.5 0 
-90.683 39 0 
-90.3386 39 0 
-89.9941 39 0 
-89.6497 39 0 
-89.3052 39 0 
-88.9608 39 0 
-88.6163 39 0 
-88.2719 39 0 
-87.9274 39 0 
-87.583 39 0 
-91.067 39.5 0 
-90.6743 39.5 0 
-90.2817 39.5 0 
-89.889 39.5 0 
-89.4963 39.5 0 
-89.1037 39.5 0 
-88.711 39.5 0 
-88.3183 39.5 0 
-87.9257 39.5 0 
-87.533 39.5 0 
-91.467 40 0 
-91.0299 40 0 
-90.5928 40 0 
-90.1557 40 0 
-89.7186 40 0 
-89.2814 40 0 
-88.8443 40 0 
-88.4072 40 0 
-87.9701 40 0 
-87.533 40 0 
-91.367 40.5 0 
-90.9401 40.5 0 
-90.5132 40.5 0 
-90.0863 40.5 0 
-89.6594 40.5 0 
-89.2326 40.5 0 
-88.8057 40.5 0 
-88.3788 40.5 0 
-87.9519 40.5 0 
-87.525 40.5 0 
-90.933 41 0 
-90.5543 41 0 
-90.1757 41 0 
-89.797 41 0 
-89.4183 41 0 
-89.0397 41 0 
-88.661 41 0 
-88.2823 41 0 
-87.9037 41 0 
-87.525 41 0 
-91.125 41.5 0 
-90.725 41.5 0 
-90.325 41.5 0 
-89.925 41.5 0 
-89.525 41.5 0 
-89.125 41.5 0 
-88.725 41.5 0 
-88.325 41.5 0 
-87.925 41.5 0 
-87.525 41.5 0 
-90.142 42 0 
-89.8651 42 0 
-89.5882 42 0 
-89.3113 42 0 
-89.0344 42 0 
-88.7576 42 0 
-88.4807 42 0 
-88.2038 42 0 
-87.9269 42 0 
-87.65 42 0 
-90.65 42.508 0 
-90.3333 42.508 0 
-90.0167 42.508 0 
-89.7 42.508 0 
-89.3833 42.508 0 
-89.0667 42.508 0 
-88.75 42.508 0 
-88.4333 42.508 0 
-88.1167 42.508 0 
-87.8 42.508 0 
-89.3 37 0 
-89.2111 37 0 
-89.1222 37 0 
-89.0333 37 0 
-88.9444 37 0 
-88.8556 37 0 
-88.7667 37 0 
-88.6778 37 0 
-88.5889 37 0 
-88.5 37 0 
-89.5 37.5 0 
-89.3408 37.5 0 
-89.1816 37.5 0 
-89.0223 37.5 0 
-88.8631 37.5 0 
-88.7039 37.5 0 
-88.5447 37.5 0 
-88.3854 37.5 0 
-88.2262 37.5 0 
-88.067 37.5 0 
-90.05 38 0 
-89.825 38 0 
-89.6 38 0 
-89.375 38 0 
-89.15 38 0 
-88.925 38 0 
-88.7 38 0 
-88.475 38 0 
-88.25 38 0 
-88.025 38 0 
-90.267 38.5 0 
-89.9799 38.5 0 
-89.6928 38.5 0 
-89.4057 38.5 0 
-89.1186 38.5 0 
-88.8314 38.5 0 
-88.5443 38.5 0 
-88.2572 38.5 0 
-87.9701 38.5 0 
-87.683 38.5 0 
-90.683 39 0 
-90.3386 39 0 
-89.9941 39 0 
-89.6497 39 0 
-89.3052 39 0 
-88.9608 39 0 
-88.6163 39 0 
-88.2719 39 0 
-87.9274 39 0 
-87.583 39 0 
-91.067 39.5 0 
-90.6743 39.5 0 
-90.2817 39.5 0 
-89.889 39.5 0 
-89.4963 39.5 0 
-89.1037 39.5 0 
-88.711 39.5 0 
-88.3183 39.5 0 
-87.9257 39.5 0 
-87.533 39.5 0 
-91.467 40 0 
-91.0299 40 0 
-90.5928 40 0 
-90.1557 40 0 
-89.7186 40 0 
-89.2814 40 0 
-88.8443 40 0 
-88.4072 40 0 
-87.9701 40 0 
-87.533 40 0 
-91.367 40.5 0 
-90.9401 40.5 0 
-90.5132 40.5 0 
-90.0863 40.5 0 
-89.6594 40.5 0 
-89.2326 40.5 0 
-88.8057 40.5 0 
-88.3788 40.5 0 
-87.9519 40.5 0 
-87.525 40.5 0 
-90.933 41 0 
-90.5543 41 0 
-90.1757 41 0 
-89.797 41 0 
-89.4183 41 0 
-89.0397 41 0 
-88.661 41 0 
-88.2823 41 0 
-87.9037 41 0 
-87.525 41 0 
-91.125 41.5 0 
-90.725 41.5 0 
-90.325 41.5 0 
-89.925 41.5 0 
-89.525 41.5 0 
-89.125 41.5 0 
-88.725 41.5 0 
-88.325 41.5 0 
-87.925 41.5 0 
-87.525 41.5 0 
-90.142 42 0 
-89.8651 42 0 
-89.5882 42 0 
-89.3113 42 0 
-89.0344 42 0 
-88.7576 42 0 
-88.4807 42 0 
-88.2038 42 0 
-87.9269 42 0 
-87.65 42 0 
-90.65 42.508 0 
-90.3333 42.508 0 
-90.0167 42.508 0 
-89.7 42.508 0 
-89.3833 42.508 0 
-89.0667 42.508 0 
-88.75 42.508 0 
-88.4333 42.508 0 
-88.1167 42.508 0 
-87.8 42.508 0 
-89.3 37 0 
-89.2111 37 0 
-89.1222 37 0 
-89.0333 37 0 
-88.9444 37 0 
-88.8556 37 0 
-88.7667 37 0 
-88.6778 37 0 
-88.5889 37 0 
-88.5 37 0 
-89.5 37.5 0 
-89.3408 37.5 0 
-89.1816 37.5 0 
-89.0223 37.5 0 
-88.8631 37.5 0 
-88.7039 37.5 0 
-88.5447 37.5 0 
-88.3854 37.5 0 
-88.2262 37.5 0 
-88.067 37.5 0 
-90.05 38 0 
-89.825 38 0 
-89.6 38 0 
-89.375 38 0 
-89.15 38 0 
-88.925 38 0 
-88.7 38 0 
-88.475 38 0 
-88.25 38 0 
-88.025 38 0 
-90.267 38.5 0 
-89.9799 38.5 0 
-89.6928 38.5 0 
-89.4057 38.5 0 
-89.1186 38.5 0 
-88.8314 38.5 0 
-88.5443 38.5 0 
-88.2572 38.5 0 
-87.9701 38.5 0 
-87.683 38.5 0 
-90.683 39 0 
-90.3386 39 0 
-89.9941 39 0 
-89.6497 39 0 
-89.3052 39 0 
-88.9608 39 0 
-88.6163 39 0 
-88.2719 39 0 
-87.9274 39 0 
-87.583 39 0 
-91.067 39.5 0 
-90.6743 39.5 0 
-90.2817 39.5 0 
-89.889 39.5 0 
-89.4963 39.5 0 
-89.1037 39.5 0 
-88.711 39.5 0 
-88.3183 39.5 0 
-87.9257 39.5 0 
-87.533 39.5 0 
-91.467 40 0 
-91.0299 40 0 
-90.5928 40 0 
-90.1557 40 0 
-89.7186 40 0 
-89.2814 40 0 
-88.8443 40 0 
-88.4072 40 0 
-87.9701 40 0 
-87.533 40 0 
-91.367 40.5 0 
-90.9401 40.5 0 
-90.5132 40.5 0 
-90.0863 40.5 0 
-89.6594 40.5 0 
-89.2326 40.5 0 
-88.8057 40.5 0 
-88.3788 40.5 0 
-87.9519 40.5 0 
-87.525 40.5 0 
-90.933 41 0 
-90.5543 41 0 
-90.1757 41 0 
-89.797 41 0 
-89.4183 41 0 
-89.0397 41 0 
-88.661 41 0 
-88.2823 41 0 
-87.9037 41 0 
-87.525 41 0 
-91.125 41.5 0 
-90.725 41.5 0 
-90.325 41.5 0 
-89.925 41.5 0 
-89.525 41.5 0 
-89.125 41.5 0 
-88.725 41.5 0 
-88.325 41.5 0 
-87.925 41.5 0 
-87.525 41.5 0 
-90.142 42 0 
-89.8651 42 0 
-89.5882 42 0 
-89.3113 42 0 
-89.0344 42 0 
-88.7576 42 0 
-88.4807 42 0 
-88.2038 42 0 
-87.9269 42 0 
-87.65 42 0 
-90.65 42.508 0 
-90.3333 42.508 0 
-90.0167 42.508 0 
-89.7 42.508 0 
-89.3833 42.508 0 
-89.0667 42.508 0 
-88.75 42.508 0 
-88.4333 42.508 0 
-88.1167 42.508 0 
-87.8 42.508 0 
-89.3 37 0 
-89.2111 37 0 
-89.1222 37 0 
-89.0333 37 0 
-88.9444 37 0 
-88.8556 37 0 
-88.7667 37 0 
-88.6778 37 0 
-88.5889 37 0 
-88.5 37 0 
-89.5 37.5 0 
-89.3408 37.5 0 
-89.1816 37.5 0 
-89.0223 37.5 0 
-88.8631 37.5 0 
-88.7039 37.5 0 
-88.5447 37.5 0 
-88.3854 37.5 0 
-88.2262 37.5 0 
-88.067 37.5 0 
-90.05 38 0 
-89.825 38 0 
-89.6 38 0 
-89.375 38 0 
-89.15 38 0 
-88.925 38 0 
-88.7 38 0 
-88.475 38 0 
-88.25 38 0 
-88.025 38 0 
-90.267 38.5 0 
-89.9799 38.5 0 
-89.6928 38.5 0 
-89.4057 38.5 0 
-89.1186 38.5 0 
-88.8314 38.5 0 
-88.5443 38.5 0 
-88.2572 38.5 0 
-87.9701 38.5 0 
-87.683 38.5 0 
-90.683 39 0 
-90.3386 39 0 
-89.9941 39 0 
-89.6497 39 0 
-89.3052 39 0 
-88.9608 39 0 
-88.6163 39 0 
-88.2719 39 0 
-87.9274 39 0 
-87.583 39 0 
-91.067 39.5 0 
-90.6743 39.5 0 
-90.2817 39.5 0 
-89.889 39.5 0 
-89.4963 39.5 0 
-89.1037 39.5 0 
-88.711 39.5 0 
-88.3183 39.5 0 
-87.9257 39.5 0 
-87.533 39.5 0 
-91.467 40 0 
-91.0299 40 0 
-90.5928 40 0 
-90.1557 40 0 
-89.7186 40 0 
-89.2814 40 0 
-88.8443 40 0 
-88.4072 40 0 
-87.9701 40 0 
-87.533 40 0 
-91.367 40.5 0 
-90.9401 40.5 0 
-90.5132 40.5 0 
-90.0863 40.5 0 
-89.6594 40.5 0 
-89.2326 40.5 0 
-88.8057 40.5 0 
-88.3788 40.5 0 
-87.9519 40.5 0 
-87.525 40.5 0 
-90.933 41 0 
-90.5543 41 0 
-90.1757 41 0 
-89.797 41 0 
-89.4183 41 0 
-89.0397 41 0 
-88.661 41 0 
-88.2823 41 0 
-87.9037 41 0 
-87.525 41 0 
-91.125 41.5 0 
-90.725 41.5 0 
-90.325 41.5 0 
-89.925 41.5 0 
-89.525 41.5 0 
-89.125 41.5 0 
-88.725 41.5 0 
-88.325 41.5 0 
-87.925 41.5 0 
-87.525 41.5 0 
-90.142 42 0 
-89.8651 42 0 
-89.5882 42 0 
-89.3113 42 0 
-89.0344 42 0 
-88.7576 42 0 
-88.4807 42 0 
-88.2038 42 0 
-87.9269 42 0 
-87.65 42 0 
-90.65 42.508 0 
-90.3333 42.508 0 
-90.0167 42.508 0 
-89.7 42.508 0 
-89.3833 42.508 0 
-89.0667 42.508 0 
-88.75 42.508 0 
-88.4333 42.508 0 
-88.1167 42.508 0 
-87.8 42.508 0 
-89.3 37 0 
-89.2111 37 0 
-89.1222 37 0 
-89.0333 37 0 
-88.9444 37 0 
-88.8556 37 0 
-88.7667 37 0 
-88.6778 37 0 
-88.5889 37 0 
-88.5 37 0 
-89.5 37.5 0 
-89.3408 37.5 0 
-89.1816 37.5 0 
-89.0223 37.5 0 
-88.8631 37.5 0 
-88.7039 37.5 0 
-88.5447 37.5 0 
-88.3854 37.5 0 
-88.2262 37.5 0 
-88.067 37.5 0 
-90.05 38 0 
-89.825 38 0 
-89.6 38 0 
-89.375 38 0 
-89.15 38 0 
-88.925 38 0 
-88.7 38 0 
-88.475 38 0 
-88.25 38 0 
-88.025 38 0 
-90.267 38.5 0 
-89.9799 38.5 0 
-89.6928 38.5 0 
-89.4057 38.5 0 
-89.1186 38.5 0 
-88.8314 38.5 0 
-88.5443 38.5 0 
-88.2572 38.5 0 
-87.9701 38.5 0 
-87.683 38.5 0 
-90.683 39 0 
-90.3386 39 0 
-89.9941 39 0 
-89.6497 39 0 
-89.3052 39 0 
-88.9608 39 0 
-88.6163 39 0 
-88.2719 39 0 
-87.9274 39 0 
-87.583 39 0 
-91.067 39.5 0 
-90.6743 39.5 0 
-90.2817 39.5 0 
-89.889 39.5 0 
-89.4963 39.5 0 
-89.1037 39.5 0 
-88.711 39.5 0 
-88.3183 39.5 0 
-87.9257 39.5 0 
-87.533 39.5 0 
-91.467 40 0 
-91.0299 40 0 
-90.5928 40 0 
-90.1557 40 0 
-89.7186 40 0 
-89.2814 40 0 
-88.8443 40 0 
-88.4072 40 0 
-87.9701 40 0 
-87.533 40 0 
-91.367 40.5 0 
-90.9401 40.5 0 
-90.5132 40.5 0 
-90.0863 40.5 0 
-89.6594 40.5 0 
-89.2326 40.5 0 
-88.8057 40.5 0 
-88.3788 40.5 0 
-87.9519 40.5 0 
-87.525 40.5 0 
-90.933 41 0 
-90.5543 41 0 
-90.1757 41 0 
-89.797 41 0 
-89.4183 41 0 
-89.0397 41 0 
-88.661 41 0 
-88.2823 41 0 
-87.9037 41 0 
-87.525 41 0 
-91.125 41.5 0 
-90.725 41.5 0 
-90.325 41.5 0 
-89.925 41.5 0 
-89.525 41.5 0 
-89.125 41.5 0 
-88.725 41.5 0 
-88.325 41.5 0 
-87.925 41.5 0 
-87.525 41.5 0 
-90.142 42 0 
-89.8651 42 0 
-89.5882 42 0 
-89.3113 42 0 
-89.0344 42 0 
-88.7576 42 0 
-88.4807 42 0 
-88.2038 42 0 
-87.9269 42 0 
-87.65 42 0 
-90.65 42.508 0 
-90.3333 42.508 0 
-90.0167 42.508 0 
-89.7 42.508 0 
-89.3833 42.508 0 
-89.0667 42.508 0 
-88.75 42.508 0 
-88.4333 42.508 0 
-88.1167 42.508 0 
-87.8 42.508 0 
-89.3 37 0 
-89.2111 37 0 
-89.1222 37 0 
-89.0333 37 0 
-88.9444 37 0 
-88.8556 37 0 
-88.7667 37 0 
-88.6778 37 0 
-88.5889 37 0 
-88.5 37 0 
-89.5 37.5 0 
-89.3408 37.5 0 
-89.1816 37.5 0 
-89.0223 37.5 0 
-88.8631 37.5 0 
-88.7039 37.5 0 
-88.5447 37.5 0 
-88.3854 37.5 0 
-88.2262 37.5 0 
-88.067 37.5 0 
-90.05 38 0 
-89.825 38 0 
-89.6 38 0 
-89.375 38 0 
-89.15 38 0 
-88.925 38 0 
-88.7 38 0 
-88.475 38 0 
-88.25 38 0 
-88.025 38 0 
-90.267 38.5 0 
-89.9799 38.5 0 
[...]
POINT_DATA 3720
VECTORS WindVector float
-0.0474249 0.105773 0 
-0.0469859 0.104552 0 
-0.0467213 0.103264 0 
-0.0465636 0.101905 0 
-0.0464578 0.100533 0 
-0.0464043 0.0992956 0 
-0.0464776 0.098407 0 
-0.0467998 0.098083 0 
-0.0474769 0.0984485 0 
-0.0485432 0.099488 0 
-0.0360978 0.103962 0 
-0.0295315 0.100594 0 
-0.0287391 0.0991354 0 
-0.0352199 0.0970229 0 
-0.0391775 0.0896461 0 
-0.0370825 0.0809952 0 
-0.0395481 0.085341 0 
-0.0459186 0.0950878 0 
-0.0523699 0.104043 0 
-0.0575095 0.110609 0 
-0.0564952 0.125239 0 
-0.0533543 0.121862 0 
-0.0485841 0.114458 0 
-0.0420617 0.105806 0 
-0.0415495 0.0973188 0 
-0.0431677 0.0867616 0 
-0.0507798 0.100764 0 
-0.061138 0.119318 0 
-0.066389 0.127322 0 
-0.0686188 0.127937 0 
-0.0586701 0.13297 0 
-0.0474442 0.140988 0 
-0.0520114 0.137576 0 
-0.0661795 0.127146 0 
-0.071563 0.122622 0 
-0.0726448 0.124674 0 
-0.0751064 0.142582 0 
-0.0751485 0.144418 0 
-0.0741444 0.132228 0 
-0.0759515 0.131822 0 
-0.0732051 0.1225 0 
-0.0719113 0.126374 0 
-0.0712854 0.130632 0 
-0.0783327 0.133346 0 
-0.0968066 0.143301 0 
-0.12828 0.165975 0 
-0.0985621 0.146268 0 
-0.0816338 0.135186 0 
-0.0792447 0.132909 0 
-0.0828581 0.135187 0 
-0.0728138 0.113093 0 
-0.0728467 0.112668 0 
-0.0781301 0.117974 0 
-0.0898889 0.125703 0 
-0.0975502 0.130897 0 
-0.0980203 0.139834 0 
-0.102021 0.148807 0 
-0.102214 0.151876 0 
-0.0975756 0.146676 0 
-0.0943859 0.142626 0 
-0.0775801 0.118861 0 
-0.0725834 0.111403 0 
-0.0726289 0.109601 0 
-0.0641599 0.09295 0 
-0.0855886 0.116562 0 
-0.0949007 0.130321 0 
-0.108227 0.15404 0 
-0.153418 0.224061 0 
-0.103782 0.149356 0 
-0.102802 0.14723 0 
-0.0832271 0.126141 0 
-0.0851792 0.128558 0 
-0.0815002 0.119888 0 
-0.0742605 0.102388 0 
-0.0864547 0.108968 0 
-0.0964992 0.125501 0 
-0.10716 0.145615 0 
-0.116559 0.156433 0 
-0.115281 0.15127 0 
-0.109855 0.147638 0 
-0.0950686 0.145747 0 
-0.0948112 0.144596 0 
-0.0847774 0.119006 0 
-0.0823922 0.10633 0 
-0.0938183 0.120363 0 
-0.101105 0.134027 0 
-0.114959 0.14522 0 
-0.142527 0.152568 0 
-0.133215 0.150726 0 
-0.116102 0.146744 0 
-0.0882539 0.133903 0 
-0.088737 0.134355 0 
-0.0864848 0.129668 0 
-0.085976 0.127325 0 
-0.0917838 0.133342 0 
-0.105286 0.149828 0 
-0.113818 0.155566 0 
-0.11658 0.14435 0 
-0.117279 0.144348 0 
-0.112598 0.143964 0 
-0.0755268 0.131581 0 
-0.0672703 0.131742 0 
-0.0676293 0.133789 0 
-0.0892821 0.146166 0 
-0.113412 0.168582 0 
-0.11883 0.17181 0 
-0.115127 0.136476 0 
-0.114494 0.134443 0 
-0.111918 0.13956 0 
-0.109608 0.141372 0 
-0.0812937 0.132255 0 
-0.0760892 0.13242 0 
-0.0663773 0.131847 0 
-0.0577437 0.130812 0 
-0.0703891 0.135455 0 
-0.0917969 0.144356 0 
-0.10303 0.147157 0 
-0.106885 0.143961 0 
-0.107368 0.141639 0 
-0.106286 0.141099 0 
0.0203276 0.0992037 0 
0.0200749 0.0988214 0 
0.0196353 0.098442 0 
0.0190626 0.0980724 0 
0.0184306 0.0977299 0 
0.0178079 0.0974409 0 
0.0172314 0.0972357 0 
0.0166935 0.0971393 0 
0.0161528 0.0971626 0 
0.0155616 0.0972983 0 
0.0295463 0.0998151 0 
0.0330372 0.099262 0 
0.0329913 0.0987284 0 
0.0270246 0.0970916 0 
0.0200347 0.0954199 0 
0.0172123 0.0947131 0 
0.0171705 0.0950496 0 
0.015803 0.0960976 0 
0.0134803 0.097362 0 
0.0111007 0.0984377 0 
0.0253083 0.11208 0 
0.0263041 0.109894 0 
0.0265124 0.104194 0 
0.0283806 0.0978323 0 
0.0293294 0.0884334 0 
0.0309837 0.0754158 0 
0.0224889 0.08635 0 
0.0119036 0.0979311 0 
0.00691238 0.101541 0 
0.00465034 0.101078 0 
0.0287647 0.119044 0 
0.0443 0.132231 0 
0.0378948 0.126685 0 
0.0190043 0.109512 0 
0.0130683 0.101782 0 
0.0100117 0.10029 0 
0.00215461 0.107424 0 
-0.001232 0.105288 0 
-0.00426684 0.093411 0 
-0.00345511 0.0967633 0 
0.0127708 0.100655 0 
0.0144131 0.106135 0 
0.0161365 0.111277 0 
0.0104044 0.111367 0 
-0.000405498 0.115902 0 
-0.0111811 0.133152 0 
-0.00566713 0.113606 0 
-0.00645924 0.0972974 0 
-0.00746887 0.0938198 0 
-0.00773137 0.0992639 0 
0.0177389 0.0852611 0 
0.0176 0.0849947 0 
0.00806175 0.0944114 0 
-0.00233859 0.0983404 0 
-0.00800152 0.0999039 0 
-0.0078402 0.108762 0 
-0.0126997 0.112531 0 
-0.0169463 0.111154 0 
-0.0164084 0.107079 0 
-0.0148957 0.105494 0 
0.00924905 0.0958125 0 
0.0192099 0.0829734 0 
0.0163423 0.084377 0 
0.0167149 0.0780025 0 
-0.00128721 0.0929057 0 
-0.00962369 0.101434 0 
-0.0198482 0.113564 0 
-0.0379671 0.153418 0 
-0.0256516 0.105272 0 
-0.0221882 0.107483 0 
0.0020564 0.108961 0 
0.00159126 0.114657 0 
0.00208934 0.106755 0 
0.00259497 0.0914809 0 
-0.00965772 0.0943073 0 
-0.0133051 0.0976032 0 
-0.0230983 0.108695 0 
-0.0310729 0.110492 0 
-0.0321826 0.106372 0 
-0.0285675 0.107226 0 
-0.00473989 0.14117 0 
-0.00512839 0.140218 0 
-0.00823349 0.109406 0 
-0.0121239 0.100356 0 
-0.0147531 0.0981197 0 
-0.023294 0.106671 0 
-0.0348821 0.108636 0 
-0.0511805 0.0971801 0 
-0.0458899 0.101027 0 
-0.0354919 0.107062 0 
-0.00758713 0.121117 0 
-0.00898387 0.122741 0 
-0.0126417 0.116269 0 
-0.017812 0.111891 0 
-0.0247579 0.114518 0 
-0.0381227 0.127062 0 
-0.0477579 0.131065 0 
-0.0507176 0.117719 0 
-0.0456152 0.112442 0 
-0.0385636 0.111327 0 
-0.0231234 0.117049 0 
-0.027452 0.118758 0 
-0.0301934 0.12064 0 
-0.0375297 0.128365 0 
-0.0516939 0.146726 0 
-0.0566609 0.149851 0 
-0.0644516 0.121965 0 
-0.063204 0.119438 0 
-0.0519023 0.118487 0 
-0.043584 0.116185 0 
-0.0195156 0.115713 0 
-0.023392 0.117036 0 
-0.0274774 0.118776 0 
-0.0296883 0.119886 0 
-0.0319444 0.121584 0 
-0.0384191 0.12598 0 
-0.0443186 0.127151 0 
-0.0474341 0.123907 0 
-0.0464736 0.120744 0 
-0.0423517 0.118295 0 
0.0643737 0.0434561 0 
0.063553 0.044235 0 
0.0625773 0.0451329 0 
0.0614674 0.0461395 0 
0.0602967 0.0471964 0 
0.0591977 0.0481867 0 
0.0583387 0.0489548 0 
0.0578687 0.0493582 0 
0.0578577 0.0493261 0 
0.0582739 0.0488849 0 
0.0670924 0.0423542 0 
0.0667358 0.043279 0 
0.0659627 0.043993 0 
0.0623343 0.0464207 0 
0.0540774 0.0533152 0 
0.0463568 0.0604134 0 
0.049458 0.0574543 0 
0.0555033 0.0516432 0 
0.0602669 0.0469955 0 
0.0633245 0.0439014 0 
0.070573 0.0403034 0 
0.0703751 0.0406894 0 
0.0696748 0.0402776 0 
0.0691143 0.0398434 0 
0.0698512 0.0373228 0 
0.0716995 0.0329178 0 
0.0700305 0.03659 0 
0.0697912 0.0395832 0 
0.0702083 0.0394024 0 
0.0696739 0.0379094 0 
0.0715525 0.0406671 0 
0.0738059 0.0483008 0 
0.0732319 0.0455854 0 
0.0722422 0.0374972 0 
0.0729197 0.0343201 0 
0.0733046 0.0343058 0 
0.0746839 0.0383376 0 
0.073102 0.0360557 0 
0.0671743 0.0266584 0 
0.0688282 0.0302246 0 
0.0666899 0.0252182 0 
0.0682525 0.0298307 0 
0.0699287 0.0336377 0 
0.0711105 0.0331184 0 
0.0744113 0.0313639 0 
0.0797586 0.0287149 0 
0.0753349 0.0314344 0 
0.0696237 0.0274565 0 
0.068209 0.0261895 0 
0.071384 0.031718 0 
0.0617395 0.0104639 0 
0.0612333 0.0109354 0 
0.063384 0.0196055 0 
0.0651236 0.0208832 0 
0.0664953 0.0202839 0 
0.0738302 0.029972 0 
0.0802676 0.0355348 0 
0.083349 0.0383222 0 
0.080282 0.0378777 0 
0.0776851 0.0380579 0 
0.0662914 0.0140186 0 
0.0612672 0.00660036 0 
0.0600477 0.00933915 0 
0.0484912 0.0130365 0 
0.0615915 0.0194968 0 
0.0703642 0.0275121 0 
0.085734 0.0393693 0 
0.129028 0.056371 0 
0.0841846 0.0413465 0 
0.0818596 0.0430836 0 
0.0736217 0.0122322 0 
0.0781037 0.00703954 0 
0.0714864 0.0105772 0 
0.0596996 0.0170382 0 
0.0674007 0.0253097 0 
0.0716057 0.0325122 0 
0.0816402 0.0425092 0 
0.0909723 0.0514174 0 
0.0890079 0.0539502 0 
0.0836728 0.0506335 0 
0.0966021 -0.00460014 0 
0.0958388 -0.00393606 0 
0.0719011 0.0175972 0 
0.0669786 0.0231141 0 
0.0689743 0.0312421 0 
0.070179 0.039438 0 
0.0796288 0.0549447 0 
0.106441 0.0860575 0 
0.0978008 0.0762053 0 
0.083054 0.0587892 0 
0.0779557 0.0144711 0 
0.0784398 0.0140592 0 
0.0707785 0.0220889 0 
0.0638405 0.0302839 0 
0.0605957 0.036012 0 
0.0559759 0.041619 0 
0.0536094 0.0490457 0 
0.0585981 0.0623219 0 
0.0687938 0.0628513 0 
0.0716246 0.0573113 0 
0.0542531 0.0380978 0 
0.0462524 0.0440763 0 
0.0439506 0.0459874 0 
0.0475912 0.0440374 0 
0.0449924 0.041999 0 
0.0427781 0.0439261 0 
0.0356785 0.0692238 0 
0.0373217 0.0700005 0 
0.0497564 0.0617764 0 
0.0585857 0.0568383 0 
0.0599712 0.0346142 0 
0.0540975 0.0391602 0 
0.0457824 0.0448034 0 
0.0396115 0.0485419 0 
0.0438137 0.0470629 0 
0.0485176 0.0464452 0 
0.0489834 0.0494878 0 
0.0487305 0.0540609 0 
0.0508364 0.0554766 0 
0.0552695 0.0539061 0 
-0.0209169 -0.0553448 0 
-0.0205751 -0.0542423 0 
-0.0202371 -0.0528765 0 
-0.0198822 -0.0513 0 
-0.0195104 -0.0496373 0 
-0.0191601 -0.0480806 0 
-0.0189071 -0.0468508 0 
-0.0188372 -0.0461277 0 
-0.0190048 -0.0459849 0 
-0.0194074 -0.0463729 0 
-0.0181203 -0.0620387 0 
-0.0154878 -0.063969 0 
-0.0150759 -0.0630712 0 
-0.0169488 -0.0551556 0 
-0.015863 -0.0420735 0 
-0.0121888 -0.0322567 0 
-0.0141792 -0.0357586 0 
-0.0182672 -0.0424594 0 
-0.0215457 -0.0477764 0 
-0.0236281 -0.0512956 0 
-0.0278752 -0.0563537 0 
-0.0268944 -0.0568119 0 
-0.0249428 -0.0582932 0 
-0.0235238 -0.0596535 0 
-0.0289689 -0.0566456 0 
-0.039107 -0.0512474 0 
-0.0338203 -0.0529809 0 
-0.0302908 -0.056157 0 
-0.02961 -0.057901 0 
-0.0287215 -0.0579332 0 
-0.0302019 -0.0546385 0 
-0.0319256 -0.0514927 0 
-0.0310984 -0.0525763 0 
-0.0294883 -0.054741 0 
-0.0309954 -0.0538304 0 
-0.0320997 -0.0549229 0 
-0.0328535 -0.061946 0 
-0.0317652 -0.0622988 0 
-0.0271042 -0.056968 0 
-0.0275499 -0.0583963 0 
-0.0318828 -0.0557814 0 
-0.0299046 -0.0565572 0 
-0.0286401 -0.0565298 0 
-0.0275614 -0.0565931 0 
-0.0269783 -0.0533722 0 
-0.0255983 -0.0432844 0 
-0.0277946 -0.0543829 0 
-0.0271467 -0.0575882 0 
-0.0266357 -0.0578354 0 
-0.0280053 -0.0612045 0 
-0.0411044 -0.04642 0 
-0.0402417 -0.0464178 0 
-0.0302142 -0.0564849 0 
-0.0226938 -0.059767 0 
-0.0198831 -0.0602372 0 
-0.0260071 -0.0614996 0 
-0.0295971 -0.0659733 0 
-0.0314956 -0.0700276 0 
-0.0307272 -0.0685151 0 
-0.0300305 -0.0677844 0 
-0.0360095 -0.0582321 0 
-0.0431841 -0.0452686 0 
-0.0387564 -0.0495176 0 
-0.0288909 -0.0565228 0 
-0.0224382 -0.0616081 0 
-0.0233131 -0.0664334 0 
-0.0311777 -0.0761388 0 
-0.0479316 -0.110763 0 
-0.0319552 -0.0699357 0 
-0.0313892 -0.0727706 0 
-0.0328162 -0.0728074 0 
-0.0327337 -0.0797928 0 
-0.0292583 -0.0750642 0 
-0.022116 -0.0641473 0 
-0.012835 -0.0691127 0 
-0.0189923 -0.0733519 0 
-0.0290493 -0.078126 0 
-0.0339107 -0.082516 0 
-0.0334027 -0.0814766 0 
-0.0320654 -0.0787376 0 
-0.0330244 -0.1061 0 
-0.0322861 -0.10545 0 
-0.0219867 -0.0763027 0 
-0.0128965 -0.0685662 0 
-0.0163636 -0.0738483 0 
-0.0246413 -0.0776674 0 
-0.0310943 -0.085199 0 
-0.0379239 -0.103306 0 
-0.0358387 -0.096499 0 
-0.0322361 -0.084291 0 
-0.0301394 -0.0847031 0 
-0.0295835 -0.0865286 0 
-0.0272806 -0.0797051 0 
-0.0254503 -0.0748112 0 
-0.027078 -0.0765824 0 
-0.033775 -0.0848565 0 
-0.0350129 -0.0880216 0 
-0.0272994 -0.0828715 0 
-0.0288954 -0.0839563 0 
-0.0297434 -0.0817982 0 
-0.0301895 -0.0722979 0 
-0.0316772 -0.0694136 0 
-0.032645 -0.0699119 0 
-0.0351737 -0.079585 0 
-0.0432573 -0.0942805 0 
-0.0435068 -0.0963393 0 
-0.0178076 -0.0750013 0 
-0.0167928 -0.0739035 0 
-0.0233025 -0.0775715 0 
-0.0266312 -0.0787497 0 
-0.0298727 -0.0736503 0 
-0.0306539 -0.0719195 0 
-0.0319746 -0.0688849 0 
-0.0329884 -0.0662495 0 
-0.0329204 -0.0707268 0 
-0.0331632 -0.078484 0 
-0.0315934 -0.0811309 0 
-0.0279387 -0.0795074 0 
-0.0263714 -0.0782135 0 
-0.0269351 -0.0778699 0 
0.0670342 0.0373855 0 
0.066146 0.0378262 0 
0.0651075 0.0384472 0 
0.0639441 0.0392204 0 
0.0627328 0.0400761 0 
0.0616051 0.0409022 0 
0.0607225 0.0415654 0 
0.0602233 0.0419532 0 
0.0601685 0.0420159 0 
0.0605235 0.0417802 0 
0.0703271 0.033371 0 
0.0701609 0.0321122 0 
0.0692949 0.0323924 0 
0.0649873 0.0361461 0 
0.0565497 0.0436793 0 
0.0493456 0.0502145 0 
0.0521257 0.047748 0 
0.0575436 0.0431226 0 
0.0618666 0.0396496 0 
0.0647104 0.0375511 0 
0.0756819 0.0422231 0 
0.0749134 0.0402752 0 
0.0730712 0.0363527 0 
0.071088 0.0322066 0 
0.0686165 0.0281661 0 
0.0657102 0.0231758 0 
0.0668702 0.0277232 0 
0.0686134 0.0308757 0 
0.0696105 0.0310586 0 
0.0698214 0.0310134 0 
0.0783384 0.0468587 0 
0.0816942 0.0518426 0 
0.0804118 0.0488105 0 
0.0769064 0.0379988 0 
0.0757626 0.0316665 0 
0.0746119 0.0293305 0 
0.0733421 0.0283827 0 
0.0718013 0.0258131 0 
0.0689373 0.0214671 0 
0.070432 0.0262979 0 
0.0747299 0.044698 0 
0.075711 0.0447226 0 
0.0770542 0.0446542 0 
0.0781501 0.0420752 0 
0.0836822 0.036553 0 
0.0970736 0.0313539 0 
0.0828659 0.0317743 0 
0.0726344 0.025 0 
0.0706593 0.0235 0 
0.0728859 0.0298657 0 
0.0737674 0.0449213 0 
0.0733538 0.04438 0 
0.072872 0.0442212 0 
0.0735668 0.0430178 0 
0.0746758 0.0422113 0 
0.0800765 0.0403256 0 
0.0838251 0.0396217 0 
0.0839961 0.0393234 0 
0.0801223 0.0377753 0 
0.0774264 0.037767 0 
0.0758936 0.0494851 0 
0.0742858 0.0459835 0 
0.0726314 0.0455776 0 
0.063778 0.0408458 0 
0.0705384 0.043929 0 
0.0752659 0.0451306 0 
0.0862374 0.0456597 0 
0.127319 0.056686 0 
0.0807202 0.0400443 0 
0.0792681 0.0422907 0 
0.0817297 0.0583317 0 
0.0867051 0.0643444 0 
0.0802284 0.0587489 0 
0.067679 0.0483968 0 
0.0690624 0.0524856 0 
0.0733438 0.0511662 0 
0.0796703 0.0484961 0 
0.0845502 0.0483969 0 
0.0808513 0.0483086 0 
0.0778578 0.0469993 0 
0.104558 0.0850714 0 
0.103571 0.0843977 0 
0.0756886 0.0585911 0 
0.0671358 0.053216 0 
0.0698803 0.0528299 0 
0.0689727 0.0500776 0 
0.0719511 0.0518339 0 
0.0820272 0.0634466 0 
0.0791242 0.0590734 0 
0.074296 0.0513386 0 
0.0837311 0.0649007 0 
0.0839428 0.0663663 0 
0.0747373 0.0595709 0 
0.0659298 0.0535661 0 
0.0609491 0.049707 0 
0.0534701 0.0435332 0 
0.0498687 0.0427198 0 
0.0553372 0.0509345 0 
0.062852 0.0523499 0 
0.066399 0.0505511 0 
0.0569016 0.0542563 0 
0.0487717 0.0541945 0 
0.0460297 0.0532254 0 
0.0469797 0.0464261 0 
0.0401968 0.0354136 0 
0.0377222 0.0340158 0 
0.0403169 0.0520547 0 
0.0420723 0.0531719 0 
0.0507059 0.0507935 0 
0.0574321 0.0497308 0 
0.0628742 0.0535944 0 
0.0567103 0.053479 0 
0.0484477 0.0542464 0 
0.0425759 0.0553866 0 
0.045661 0.0524319 0 
0.0484391 0.047287 0 
0.0485367 0.0458408 0 
0.0491818 0.0475559 0 
0.0514757 0.0487059 0 
0.055269 0.0487534 0 
0.0637779 0.0938006 0 
0.0626196 0.0944908 0 
0.0612836 0.0953977 0 
0.059793 0.0964888 0 
0.0582382 0.0976769 0 
0.0567869 0.0988196 0 
0.0556538 0.0997483 0 
0.0550286 0.100324 0 
0.0549996 0.100491 0 
0.0555233 0.100289 0 
0.066901 0.088831 0 
0.0657852 0.0876929 0 
0.0646311 0.0881413 0 
0.0602389 0.0927005 0 
0.0499026 0.102334 0 
0.0401022 0.110781 0 
0.0440555 0.107734 0 
0.0517545 0.102339 0 
0.0577909 0.0986284 0 
0.0616242 0.0965963 0 
0.0778703 0.0962605 0 
0.0765462 0.0948251 0 
0.0731509 0.0911501 0 
0.0700723 0.0864279 0 
0.0696802 0.0792098 0 
0.071052 0.0685889 0 
0.0695862 0.079388 0 
0.0697512 0.0893042 0 
0.0701797 0.0918207 0 
0.0691132 0.0919614 0 
0.0826952 0.0994567 0 
0.0908935 0.105512 0 
0.0876088 0.103181 0 
0.0784238 0.095848 0 
0.0761854 0.0917162 0 
0.0754378 0.0902061 0 
0.0763277 0.0925934 0 
0.0730452 0.0901366 0 
0.0627271 0.0831069 0 
0.0657242 0.08788 0 
0.0727435 0.0876309 0 
0.0751988 0.0921803 0 
0.0777136 0.0963035 0 
0.077535 0.0983498 0 
0.080438 0.10548 0 
0.090377 0.122584 0 
0.0787352 0.104312 0 
0.0662019 0.0886514 0 
0.0632312 0.0857711 0 
0.0682018 0.0926114 0 
0.06753 0.0725754 0 
0.0671392 0.072839 0 
0.0687893 0.0837635 0 
0.0674667 0.090185 0 
0.0668253 0.0930707 0 
0.0758055 0.101858 0 
0.0801624 0.107793 0 
0.0800332 0.108786 0 
0.0762062 0.105062 0 
0.0744111 0.10329 0 
0.0716127 0.0806329 0 
0.0671696 0.0694578 0 
0.066579 0.07199 0 
0.0604116 0.0706116 0 
0.0652924 0.0857591 0 
0.0710832 0.0958154 0 
0.083159 0.112504 0 
0.124324 0.156297 0 
0.0752113 0.108814 0 
0.0770282 0.110399 0 
0.0784962 0.0876316 0 
0.0828063 0.0888072 0 
0.0768506 0.0861365 0 
0.0649163 0.0806888 0 
0.0661011 0.0872037 0 
0.0713615 0.0940466 0 
0.07904 0.111091 0 
0.0831924 0.122974 0 
0.0801215 0.123117 0 
0.0782868 0.118164 0 
0.10023 0.0989768 0 
0.0993405 0.0987622 0 
0.0741324 0.090694 0 
0.0654714 0.088705 0 
0.069289 0.0914457 0 
0.0726537 0.101609 0 
0.077577 0.12053 0 
0.0864118 0.15721 0 
0.0835654 0.145813 0 
0.0785233 0.125574 0 
0.0830816 0.0946535 0 
0.083592 0.0950817 0 
0.0765694 0.0937523 0 
0.070575 0.093256 0 
0.0695916 0.0951405 0 
0.0712503 0.0984063 0 
0.0717901 0.105919 0 
0.0714717 0.123474 0 
0.0743153 0.126394 0 
0.0749615 0.121343 0 
0.0669752 0.0924925 0 
0.0626412 0.0907488 0 
0.0618881 0.0907488 0 
0.0667888 0.0941389 0 
0.0712129 0.0932075 0 
0.0714099 0.0953518 0 
0.0638069 0.127297 0 
0.0639387 0.12885 0 
0.0681718 0.121688 0 
0.0708945 0.118006 0 
0.0702381 0.0943103 0 
0.0670157 0.0932665 0 
0.0624496 0.0910241 0 
0.0590066 0.0889008 0 
0.0622967 0.0922306 0 
0.0671012 0.0983943 0 
0.0686022 0.104666 0 
0.0683442 0.11132 0 
0.0686683 0.114146 0 
0.0698533 0.1137 0 
0.0894846 -0.0680704 0 
0.0892838 -0.0674352 0 
0.0892615 -0.0666078 0 
0.0893668 -0.0656276 0 
0.0895438 -0.0645801 0 
0.0897577 -0.0635929 0 
0.0900133 -0.0628099 0 
0.0903519 -0.0623466 0 
0.0908265 -0.0622502 0 
0.0914716 -0.0624893 0 
0.0801563 -0.0732447 0 
0.0759509 -0.0749216 0 
0.0755476 -0.0744004 0 
0.0804134 -0.0689102 0 
0.0854038 -0.0600761 0 
0.0867925 -0.0536041 0 
0.0872136 -0.0558796 0 
0.0891074 -0.0602382 0 
0.0917417 -0.0637463 0 
0.0944359 -0.0661391 0 
0.0894169 -0.0675933 0 
0.0869619 -0.0687211 0 
0.0849191 -0.0704487 0 
0.0810375 -0.0718611 0 
0.0779909 -0.0696553 0 
0.0742137 -0.0653442 0 
0.0813875 -0.0666666 0 
0.0880147 -0.0682553 0 
0.0911742 -0.0697256 0 
0.0947397 -0.0713667 0 
0.0881485 -0.0652699 0 
0.069323 -0.0656809 0 
0.0760559 -0.0665358 0 
0.094482 -0.0702922 0 
0.0978775 -0.0724873 0 
0.0962933 -0.0727013 0 
0.0905013 -0.0714107 0 
0.0887788 -0.0740622 0 
0.0938508 -0.0823631 0 
0.101245 -0.0791452 0 
0.115781 -0.0568669 0 
0.109273 -0.0604911 0 
0.104187 -0.0638585 0 
0.109269 -0.0674772 0 
0.119865 -0.0766559 0 
0.132618 -0.0911458 0 
0.118896 -0.0813871 0 
0.105327 -0.0827503 0 
0.104089 -0.0837705 0 
0.114494 -0.0792028 0 
0.127657 -0.0422925 0 
0.125501 -0.0420961 0 
0.119398 -0.0520383 0 
0.127347 -0.0581337 0 
0.134833 -0.0612064 0 
0.133148 -0.0717476 0 
0.139231 -0.078662 0 
0.144506 -0.0808806 0 
0.141399 -0.0788736 0 
0.138639 -0.0768605 0 
0.133345 -0.0519141 0 
0.130645 -0.0395853 0 
0.123202 -0.0409033 0 
0.0813144 -0.0327562 0 
0.122002 -0.0527045 0 
0.140046 -0.064316 0 
0.156958 -0.0789991 0 
0.192128 -0.118198 0 
0.162673 -0.075497 0 
0.157735 -0.0755834 0 
0.145265 -0.0626091 0 
0.151654 -0.0667017 0 
0.137946 -0.0603012 0 
0.11661 -0.0484535 0 
0.147729 -0.0608955 0 
0.156182 -0.0665298 0 
0.166936 -0.0736749 0 
0.182064 -0.0779554 0 
0.185319 -0.0744733 0 
0.175062 -0.0733093 0 
0.180951 -0.0874923 0 
0.180115 -0.086858 0 
0.149379 -0.0646595 0 
0.147716 -0.0604695 0 
0.158914 -0.0652585 0 
0.16825 -0.067338 0 
0.191738 -0.0695386 0 
0.24804 -0.0697272 0 
0.227779 -0.0700047 0 
0.191074 -0.0703786 0 
0.157216 -0.0715014 0 
0.159456 -0.0723988 0 
0.152836 -0.0666732 0 
0.150352 -0.0624992 0 
0.159812 -0.0635629 0 
0.185114 -0.0686935 0 
0.19833 -0.0696176 0 
0.193251 -0.0642786 0 
0.194342 -0.0658638 0 
0.18524 -0.0674652 0 
0.136719 -0.0565775 0 
0.126419 -0.0511983 0 
0.128056 -0.0508464 0 
0.162757 -0.0610965 0 
0.208307 -0.0732389 0 
0.21695 -0.0745684 0 
0.182707 -0.0568961 0 
0.180221 -0.0563079 0 
0.181282 -0.0613176 0 
0.179299 -0.0642467 0 
0.142723 -0.0604236 0 
0.136652 -0.0566885 0 
0.124684 -0.0507233 0 
0.113727 -0.0458531 0 
0.131838 -0.0517407 0 
0.163201 -0.0609656 0 
0.177895 -0.0640527 0 
0.17923 -0.0630944 0 
0.177392 -0.0627466 0 
0.175026 -0.0637228 0 
0.0915199 -0.066341 0 
0.0915984 -0.0663212 0 
0.0919149 -0.0659848 0 
0.0924157 -0.0654177 0 
0.09302 -0.0647356 0 
0.0936395 -0.0640489 0 
0.0942039 -0.0634293 0 
0.0946831 -0.0628929 0 
0.0950906 -0.062412 0 
0.0954685 -0.0619435 0 
0.0820603 -0.0788705 0 
0.0781385 -0.086116 0 
0.0779507 -0.0865272 0 
0.0836433 -0.0768906 0 
0.0916637 -0.0664287 0 
0.096508 -0.0624338 0 
0.0953911 -0.0627216 0 
0.0941724 -0.0623538 0 
0.09425 -0.0613469 0 
0.0952273 -0.0602176 0 
0.0935507 -0.0456537 0 
0.0907352 -0.0510397 0 
0.0872232 -0.0613487 0 
0.0817527 -0.0716156 0 
0.075855 -0.0704934 0 