# vtk DataFile Version 3.0
Autogenerated from july.txt by weatherdisplay
ASCII
DATASET STRUCTURED_GRID
DIMENSIONS 10 12 31
POINTS 3720 float
-89.3 37 0 
-89.2111 37 0 
-89.1222 37 0 
-89.0333 37 0 
-88.9444 37 0 
-88.8556 37 0 
-88.7667 37 0 
-88.6778 37 0 
-88.5889 37 0 
-88.5 37 0 
-89.5 37.5 0 
-89.3408 37.5 0 
-89.1816 37.5 0 
-89.0223 37.5 0 
-88.8631 37.5 0 
-88.7039 37.5 0 
-88.5447 37.5 0 
-88.3854 37.5 0 
-88.2262 37.5 0 
-88.067 37.5 0 
-90.05 38 0 
-89.825 38 0 
-89.6 38 0 
-89.375 38 0 
-89.15 38 0 
-88.925 38 0 
-88.7 38 0 
-88.475 38 0 
-88.25 38 0 
-88.025 38 0 
-90.267 38.5 0 
-89.9799 38.5 0 
-89.6928 38.5 0 
-89.4057 38.5 0 
-89.1186 38.5 0 
-88.8314 38.5 0 
-88.5443 38.5 0 
-88.2572 38.5 0 
-87.9701 38.5 0 
-87.683 38.5 0 
-90.683 39 0 
-90.3386 39 0 
-89.9941 39 0 
-89.6497 39 0 
-89.3052 39 0 
-88.9608 39 0 
-88.6163 39 0 
-88.2719 39 0 
-87.9274 39 0 
-87.583 39 0 
-91.067 39.5 0 
-90.6743 39.5 0 
-90.2817 39.5 0 
-89.889 39.5 0 
-89.4963 39.5 0 
-89.1037 39.5 0 
-88.711 39.5 0 
-88.3183 39.5 0 
-87.9257 39.5 0 
-87.533 39.5 0 
-91.467 40 0 
-91.0299 40 0 
-90.5928 40 0 
-90.1557 40 0 
-89.7186 40 0 
-89.2814 40 0 
-88.8443 40 0 
-88.4072 40 0 
-87.9701 40 0 
-87.533 40 0 
-91.367 40.5 0 
-90.9401 40.5 0 
-90.5132 40.5 0 
-90.0863 40.5 0 
-89.6594 40.5 0 
-89.2326 40.5 0 
-88.8057 40.5 0 
-88.3788 40.5 0 
-87.9519 40.5 0 
-87.525 40.5 0 
-90.933 41 0 
-90.5543 41 0 
-90.1757 41 0 
-89.797 41 0 
-89.4183 41 0 
-89.0397 41 0 
-88.661 41 0 
-88.2823 41 0 
-87.9037 41 0 
-87.525 41 0 
-91.125 41.5 0 
-90.725 41.5 0 
-90.325 41.5 0 
-89.925 41.5 0 
-89.525 41.5 0 
-89.125 41.5 0 
-88.725 41.5 0 
-88.325 41.5 0 
-87.925 41.5 0 
-87.525 41.5 0 
-90.142 42 0 
-89.8651 42 0 
-89.5882 42 0 
-89.3113 42 0 
-89.0344 42 0 
-88.7576 42 0 
-88.4807 42 0 
-88.2038 42 0 
-87.9269 42 0 
-87.65 42 0 
-90.65 42.508 0 
-90.3333 42.508 0 
-90.0167 42.508 0 
-89.7 42.508 0 
-89.3833 42.508 0 
-89.0667 42.508 0 
-88.75 42.508 0 
-88.4333 42.508 0 
-88.1167 42.508 0 
-87.8 42.508 0 
-89.3 37 0 
-89.2111 37 0 
-89.1222 37 0 
-89.0333 37 0 
-88.9444 37 0 
-88.8556 37 0 
-88.7667 37 0 
-88.6778 37 0 
-88.5889 37 0 
-88.5 37 0 
-89.5 37.5 0 
-89.3408 37.5 0 
-89.1816 37.5 0 
-89.0223 37.5 0 
-88.8631 37.5 0 
-88.7039 37.5 0 
-88.5447 37.5 0 
-88.3854 37.5 0 
-88.2262 37.5 0 
-88.067 37.5 0 
-90.05 38 0 
-89.825 38 0 
-89.6 38 0 
-89.375 38 0 
-89.15 38 0 
-88.925 38 0 
-88.7 38 0 
-88.475 38 0 
-88.25 38 0 
-88.025 38 0 
-90.267 38.5 0 
-89.9799 38.5 0 
-89.6928 38.5 0 
-89.4057 38.5 0 
-89.1186 38.5 0 
-88.8314 38.5 0 
-88.5443 38.5 0 
-88.2572 38.5 0 
-87.9701 38.5 0 
-87.683 38.5 0 
-90.683 39 0 
-90.3386 39 0 
-89.9941 39 0 
-89.6497 39 0 
-89.3052 39 0 
-88.9608 39 0 
-88.6163 39 0 
-88.2719 39 0 
-87.9274 39 0 
-87.583 39 0 
-91.067 39.5 0 
-90.6743 39.5 0 
-90.2817 39.5 0 
-89.889 39.5 0 
-89.4963 39.5 0 
-89.1037 39.5 0 
-88.711 39.5 0 
-88.3183 39.5 0 
-87.9257 39.5 0 
-87.533 39.5 0 
-91.467 40 0 
-91.0299 40 0 
-90.5928 40 0 
-90.1557 40 0 
-89.7186 40 0 
-89.2814 40 0 
-88.8443 40 0 
-88.4072 40 0 
-87.9701 40 0 
-87.533 40 0 
-91.367 40.5 0 
-90.9401 40.5 0 
-90.5132 40.5 0 
-90.0863 40.5 0 
-89.6594 40.5 0 
-89.2326 40.5 0 
-88.8057 40.5 0 
-88.3788 40.5 0 
-87.9519 40.5 0 
-87.525 40.5 0 
-90.933 41 0 
-90.5543 41 0 
-90.1757 41 0 
-89.797 41 0 
-89.4183 41 0 
-89.0397 41 0 
-88.661 41 0 
-88.2823 41 0 
-87.9037 41 0 
-87.525 41 0 
-91.125 41.5 0 
-90.725 41.5 0 
-90.325 41.5 0 
-89.925 41.5 0 
-89.525 41.5 0 
-89.125 41.5 0 
-88.725 41.5 0 
-88.325 41.5 0 
-87.925 41.5 0 
-87.525 41.5 0 
-90.142 42 0 
-89.8651 42 0 
-89.5882 42 0 
-89.3113 42 0 
-89.0344 42 0 
-88.7576 42 0 
-88.4807 42 0 
-88.2038 42 0 
-87.9269 42 0 
-87.65 42 0 
-90.65 42.508 0 
-90.3333 42.508 0 
-90.0167 42.508 0 
-89.7 42.508 0 
-89.3833 42.508 0 
-89.0667 42.508 0 
-88.75 42.508 0 
-88.4333 42.508 0 
-88.1167 42.508 0 
-87.8 42.508 0 
-89.3 37 0 
-89.2111 37 0 
-89.1222 37 0 
-89.0333 37 0 
-88.9444 37 0 
-88.8556 37 0 
-88.7667 37 0 
-88.6778 37 0 
-88.5889 37 0 
-88.5 37 0 
-89.5 37.5 0 
-89.3408 37.5 0 
-89.1816 37.5 0 
-89.0223 37.5 0 
-88.8631 37.5 0 
-88.7039 37.5 0 
-88.5447 37.5 0 
-88.3854 37.5 0 
-88.2262 37.5 0 
-88.067 37.5 0 
-90.05 38 0 
-89.825 38 0 
-89.6 38 0 
-89.375 38 0 
-89.15 38 0 
-88.925 38 0 
-88.7 38 0 
-88.475 38 0 
-88.25 38 0 
-88.025 38 0 
-90.267 38.5 0 
-89.9799 38.5 0 
-89.6928 38.5 0 
-89.4057 38.5 0 
-89.1186 38.5 0 
-88.8314 38.5 0 
-88.5443 38.5 0 
-88.2572 38.5 0 
-87.9701 38.5 0 
-87.683 38.5 0 
-90.683 39 0 
-90.3386 39 0 
-89.9941 39 0 
-89.6497 39 0 
-89.3052 39 0 
-88.9608 39 0 
-88.6163 39 0 
-88.2719 39 0 
-87.9274 39 0 
-87.583 39 0 
-91.067 39.5 0 
-90.6743 39.5 0 
-90.2817 39.5 0 
-89.889 39.5 0 
-89.4963 39.5 0 
-89.1037 39.5 0 
-88.711 39.5 0 
-88.3183 39.5 0 
-87.9257 39.5 0 
-87.533 39.5 0 
-91.467 40 0 
-91.0299 40 0 
-90.5928 40 0 
-90.1557 40 0 
-89.7186 40 0 
-89.2814 40 0 
-88.8443 40 0 
-88.4072 40 0 
-87.9701 40 0 
-87.533 40 0 
-91.367 40.5 0 
-90.9401 40.5 0 
-90.5132 40.5 0 
-90.0863 40.5 0 
-89.6594 40.5 0 
-89.2326 40.5 0 
-88.8057 40.5 0 
-88.3788 40.5 0 
-87.9519 40.5 0 
-87.525 40.5 0 
-90.933 41 0 
-90.5543 41 0 
-90.1757 41 0 
-89.797 41 0 
-89.4183 41 0 
-89.0397 41 0 
-88.661 41 0 
-88.2823 41 0 
-87.9037 41 0 
-87.525 41 0 
-91.125 41.5 0 
-90.725 41.5 0 
-90.325 41.5 0 
-89.925 41.5 0 
-89.525 41.5 0 
-89.125 41.5 0 
-88.725 41.5 0 
-88.325 41.5 0 
-87.925 41.5 0 
-87.525 41.5 0 
-90.142 42 0 
-89.8651 42 0 
-89.5882 42 0 
-89.3113 42 0 
-89.0344 42 0 
-88.7576 42 0 
-88.4807 42 0 
-88.2038 42 0 
-87.9269 42 0 
-87.65 42 0 
-90.65 42.508 0 
-90.3333 42.508 0 
-90.0167 42.508 0 
-89.7 42.508 0 
-89.3833 42.508 0 
-89.0667 42.508 0 
-88.75 42.508 0 
-88.4333 42.508 0 
-88.1167 42.508 0 
-87.8 42.508 0 
-89.3 37 0 
-89.2111 37 0 
-89.1222 37 0 
-89.0333 37 0 
-88.9444 37 0 
-88.8556 37 0 
-88.7667 37 0 
-88.6778 37 0 
-88.5889 37 0 
-88.5 37 0 
-89.5 37.5 0 
-89.3408 37.5 0 
-89.1816 37.5 0 
-89.0223 37.5 0 
-88.8631 37.5 0 
-88.7039 37.5 0 
-88.5447 37.5 0 
-88.3854 37.5 0 
-88.2262 37.5 0 
-88.067 37.5 0 
-90.05 38 0 
-89.825 38 0 
-89.6 38 0 
-89.375 38 0 
-89.15 38 0 
-88.925 38 0 
-88.7 38 0 
-88.475 38 0 
-88.25 38 0 
-88.025 38 0 
-90.267 38.5 0 
-89.9799 38.5 0 
-89.6928 38.5 0 
-89.4057 38.5 0 
-89.1186 38.5 0 
-88.8314 38.5 0 
-88.5443 38.5 0 
-88.2572 38.5 0 
-87.9701 38.5 0 
-87.683 38.5 0 
-90.683 39 0 
-90.3386 39 0 
-89.9941 39 0 
-89.6497 39 0 
-89.3052 39 0 
-88.9608 39 0 
-88.6163 39 0 
-88.2719 39 0 
-87.9274 39 0 
-87.583 39 0 
-91.067 39.5 0 
-90.6743 39.5 0 
-90.2817 39.5 0 
-89.889 39.5 0 
-89.4963 39.5 0 
-89.1037 39.5 0 
-88.711 39.5 0 
-88.3183 39.5 0 
-87.9257 39.5 0 
-87.533 39.5 0 
-91.467 40 0 
-91.0299 40 0 
-90.5928 40 0 
-90.1557 40 0 
-89.7186 40 0 
-89.2814 40 0 
-88.8443 40 0 
-88.4072 40 0 
-87.9701 40 0 
-87.533 40 0 
-91.367 40.5 0 
-90.9401 40.5 0 
-90.5132 40.5 0 
-90.0863 40.5 0 
-89.6594 40.5 0 
-89.2326 40.5 0 
-88.8057 40.5 0 
-88.3788 40.5 0 
-87.9519 40.5 0 
-87.525 40.5 0 
-90.933 41 0 
-90.5543 41 0 
-90.1757 41 0 
-89.797 41 0 
-89.4183 41 0 
-89.0397 41 0 
-88.661 41 0 
-88.2823 41 0 
-87.9037 41 0 
-87.525 41 0 
-91.125 41.5 0 
-90.725 41.5 0 
-90.325 41.5 0 
-89.925 41.5 0 
-89.525 41.5 0 
-89.125 41.5 0 
-88.725 41.5 0 
-88.325 41.5 0 
-87.925 41.5 0 
-87.525 41.5 0 
-90.142 42 0 
-89.8651 42 0 
-89.5882 42 0 
-89.3113 42 0 
-89.0344 42 0 
-88.7576 42 0 
-88.4807 42 0 
-88.2038 42 0 
-87.9269 42 0 
-87.65 42 0 
-90.65 42.508 0 
-90.3333 42.508 0 
-90.0167 42.508 0 
-89.7 42.508 0 
-89.3833 42.508 0 
-89.0667 42.508 0 
-88.75 42.508 0 
-88.4333 42.508 0 
-88.1167 42.508 0 
-87.8 42.508 0 
-89.3 37 0 
-89.2111 37 0 
-89.1222 37 0 
-89.0333 37 0 
-88.9444 37 0 
-88.8556 37 0 
-88.7667 37 0 
-88.6778 37 0 
-88.5889 37 0 
-88.5 37 0 
-89.5 37.5 0 
-89.3408 37.5 0 
-89.1816 37.5 0 
-89.0223 37.5 0 
-88.8631 37.5 0 
-88.7039 37.5 0 
-88.5447 37.5 0 
-88.3854 37.5 0 
-88.2262 37.5 0 
-88.067 37.5 0 
-90.05 38 0 
-89.825 38 0 
-89.6 38 0 
-89.375 38 0 
-89.15 38 0 
-88.925 38 0 
-88.7 38 0 
-88.475 38 0 
-88.25 38 0 
-88.025 38 0 
-90.267 38.5 0 
-89.9799 38.5 0 
-89.6928 38.5 0 
-89.4057 38.5 0 
-89.1186 38.5 0 
-88.8314 38.5 0 
-88.5443 38.5 0 
-88.2572 38.5 0 
-87.9701 38.5 0 
-87.683 38.5 0 
-90.683 39 0 
-90.3386 39 0 
-89.9941 39 0 
-89.6497 39 0 
-89.3052 39 0 
-88.9608 39 0 
-88.6163 39 0 
-88.2719 39 0 
-87.9274 39 0 
-87.583 39 0 
-91.067 39.5 0 
-90.6743 39.5 0 
-90.2817 39.5 0 
-89.889 39.5 0 
-89.4963 39.5 0 
-89.1037 39.5 0 
-88.711 39.5 0 
-88.3183 39.5 0 
-87.9257 39.5 0 
-87.533 39.5 0 
-91.467 40 0 
-91.0299 40 0 
-90.5928 40 0 
-90.1557 40 0 
-89.7186 40 0 
-89.2814 40 0 
-88.8443 40 0 
-88.4072 40 0 
-87.9701 40 0 
-87.533 40 0 
-91.367 40.5 0 
-90.9401 40.5 0 
-90.5132 40.5 0 
-90.0863 40.5 0 
-89.6594 40.5 0 
-89.2326 40.5 0 
-88.8057 40.5 0 
-88.3788 40.5 0 
-87.9519 40.5 0 
-87.525 40.5 0 
-90.933 41 0 
-90.5543 41 0 
-90.1757 41 0 
-89.797 41 0 
-89.4183 41 0 
-89.0397 41 0 
-88.661 41 0 
-88.2823 41 0 
-87.9037 41 0 
-87.525 41 0 
-91.125 41.5 0 
-90.725 41.5 0 
-90.325 41.5 0 
-89.925 41.5 0 
-89.525 41.5 0 
-89.125 41.5 0 
-88.725 41.5 0 
-88.325 41.5 0 
-87.925 41.5 0 
-87.525 41.5 0 
-90.142 42 0 
-89.8651 42 0 
-89.5882 42 0 
-89.3113 42 0 
-89.0344 42 0 
-88.7576 42 0 
-88.4807 42 0 
-88.2038 42 0 
-87.9269 42 0 
-87.65 42 0 
-90.65 42.508 0 
-90.3333 42.508 0 
-90.0167 42.508 0 
-89.7 42.508 0 
-89.3833 42.508 0 
-89.0667 42.508 0 
-88.75 42.508 0 
-88.4333 42.508 0 
-88.1167 42.508 0 
-87.8 42.508 0 
-89.3 37 0 
-89.2111 37 0 
-89.1222 37 0 
-89.0333 37 0 
-88.9444 37 0 
-88.8556 37 0 
-88.7667 37 0 
-88.6778 37 0 
-88.5889 37 0 
-88.5 37 0 
-89.5 37.5 0 
-89.3408 37.5 0 
-89.1816 37.5 0 
-89.0223 37.5 0 
-88.8631 37.5 0 
-88.7039 37.5 0 
-88.5447 37.5 0 
-88.3854 37.5 0 
-88.2262 37.5 0 
-88.067 37.5 0 
-90.05 38 0 
-89.825 38 0 
-89.6 38 0 
-89.375 38 0 
-89.15 38 0 
-88.925 38 0 
-88.7 38 0 
-88.475 38 0 
-88.25 38 0 
-88.025 38 0 
-90.267 38.5 0 
-89.9799 38.5 0 
[...]
POINT_DATA 3720
VECTORS WindVector float
-0.0341709 -0.0173359 0 
-0.0337123 -0.0169841 0 
-0.0331637 -0.0165174 0 
-0.0325385 -0.0159553 0 
-0.031879 -0.0153454 0 
-0.0312588 -0.0147639 0 
-0.0307683 -0.0143009 0 
-0.0304852 -0.014032 0 
-0.0304436 -0.0139899 0 
-0.0306241 -0.0141562 0 
-0.035954 -0.0200041 0 
-0.0360087 -0.020734 0 
-0.0356193 -0.0204625 0 
-0.0333831 -0.017753 0 
-0.0286575 -0.0126436 0 
-0.0244677 -0.00837717 0 
-0.0260561 -0.00998398 0 
-0.0290343 -0.0130499 0 
-0.0312792 -0.015418 0 
-0.0326743 -0.0168964 0 
-0.0366005 -0.0159672 0 
-0.0364638 -0.0168986 0 
-0.0364232 -0.0186466 0 
-0.0367183 -0.0203431 0 
-0.0378896 -0.0212439 0 
-0.040041 -0.0220153 0 
-0.0375312 -0.0209712 0 
-0.0356101 -0.020718 0 
-0.0351642 -0.0211061 0 
-0.0347992 -0.021154 0 
-0.0369338 -0.0138336 0 
-0.037014 -0.0118317 0 
-0.0366827 -0.0133289 0 
-0.0353433 -0.018869 0 
-0.0347252 -0.0221264 0 
-0.0349707 -0.0230631 0 
-0.0359927 -0.0235678 0 
-0.0352866 -0.0245971 0 
-0.0323795 -0.0259615 0 
-0.0337006 -0.023509 0 
-0.0382517 -0.0125845 0 
-0.0372462 -0.0138897 0 
-0.0361682 -0.0151161 0 
-0.0346819 -0.0174894 0 
-0.0307178 -0.0230264 0 
-0.0220841 -0.0318935 0 
-0.0305119 -0.0249844 0 
-0.0325442 -0.02469 0 
-0.0326448 -0.0247688 0 
-0.0349941 -0.0214732 0 
-0.0400366 -0.00743087 0 
-0.0395802 -0.00775882 0 
-0.0376454 -0.0125078 0 
-0.0330663 -0.0172703 0 
-0.0304252 -0.0197144 0 
-0.0342677 -0.0189781 0 
-0.036386 -0.0179939 0 
-0.037969 -0.0161225 0 
-0.0377941 -0.0162455 0 
-0.0383115 -0.0166073 0 
-0.0416771 -0.00971036 0 
-0.0408138 -0.00625668 0 
-0.0403237 -0.0076594 0 
-0.0380294 -0.0106376 0 
-0.0360994 -0.0144104 0 
-0.0385582 -0.0145107 0 
-0.0417971 -0.0131107 0 
-0.0519992 -0.0110528 0 
-0.0371275 -0.0107935 0 
-0.0410981 -0.0133118 0 
-0.0451646 -0.0114965 0 
-0.0477068 -0.0118246 0 
-0.0453132 -0.0112359 0 
-0.0405008 -0.00893077 0 
-0.047172 -0.00596547 0 
-0.0504977 -0.0085902 0 
-0.0464282 -0.0112059 0 
-0.0476885 -0.0108155 0 
-0.0487916 -0.0108935 0 
-0.0469583 -0.0120787 0 
-0.0561973 -0.014574 0 
-0.0558969 -0.0143518 0 
-0.0445223 -0.00972444 0 
-0.0419198 -0.00611113 0 
-0.050869 -0.00723406 0 
-0.0484726 -0.0103934 0 
-0.0530374 -0.0111101 0 
-0.0733715 -0.00901982 0 
-0.065902 -0.00977409 0 
-0.05292 -0.0113536 0 
-0.0472017 -0.0130407 0 
-0.0476055 -0.0129762 0 
-0.0442215 -0.0120853 0 
-0.0416354 -0.0114238 0 
-0.0419331 -0.0122564 0 
-0.0426065 -0.0155403 0 
-0.0444927 -0.015598 0 
-0.050365 -0.0100179 0 
-0.0526407 -0.0101061 0 
-0.0502708 -0.0111662 0 
-0.0348175 -0.0135396 0 
-0.0296842 -0.0142465 0 
-0.0288386 -0.0147446 0 
-0.0352505 -0.0162817 0 
-0.0389489 -0.0209712 0 
-0.0400432 -0.0211016 0 
-0.0473298 -0.00619766 0 
-0.0479173 -0.00551576 0 
-0.047399 -0.00884496 0 
-0.0472055 -0.0105482 0 
-0.038181 -0.0133837 0 
-0.0347144 -0.0137677 0 
-0.0291944 -0.0143716 0 
-0.024734 -0.0148178 0 
-0.0295128 -0.0148647 0 
-0.0369501 -0.015081 0 
-0.0410829 -0.0141426 0 
-0.0436151 -0.0119632 0 
-0.0447906 -0.0109765 0 
-0.0451028 -0.0112335 0 
0.0141118 -0.00497248 0 
0.014571 -0.00442601 0 
0.0149901 -0.00375553 0 
0.015374 -0.00300187 0 
0.0157193 -0.00223178 0 
0.0160112 -0.00152235 0 
0.0162278 -0.000938168 0 
0.0163495 -0.000511303 0 
0.0163687 -0.000235372 0 
0.0162937 -7.67439e-005 0 
0.0150947 -0.0107045 0 
0.0166954 -0.0128715 0 
0.017273 -0.0124432 0 
0.0175311 -0.00683405 0 
0.0181119 -0.000409752 0 
0.0185309 0.00234099 0 
0.0184101 0.00194046 0 
0.0181608 0.0015529 0 
0.0178361 0.00146072 0 
0.0173725 0.00146467 0 
1.96215e-005 -0.010625 0 
0.003096 -0.00969803 0 
0.00911867 -0.00791337 0 
0.0150897 -0.00640777 0 
0.0199369 -2.11216e-005 0 
0.0247591 0.00963026 0 
0.0230668 0.00644351 0 
0.0234189 0.00421689 0 
0.0236009 0.00378175 0 
0.0216628 0.00354377 0 
-0.00817093 -0.0144279 0 
-0.0153557 -0.0204126 0 
-0.0107718 -0.0165948 0 
0.0059847 -0.00258462 0 
0.0160506 0.00599489 0 
0.0207689 0.00797213 0 
0.0284335 0.00556813 0 
0.0301397 0.00531636 0 
0.0247456 0.00608683 0 
0.0196485 0.00484774 0 
-0.00721347 -0.0137369 0 
-0.00755906 -0.0120336 0 
-0.00771616 -0.0102802 0 
-0.00376149 -0.00488842 0 
0.00836816 0.00755591 0 
0.0236489 0.0250956 0 
0.0160508 0.0116466 0 
0.0184328 0.0067945 0 
0.0185758 0.00612228 0 
0.0124091 0.00452846 0 
-0.01096 -0.020257 0 
-0.0115038 -0.0193403 0 
-0.011151 -0.013386 0 
-0.0163629 -0.00587865 0 
-0.0190979 -0.00161131 0 
-0.00442394 0.00259708 0 
-0.00293087 0.00630237 0 
-0.00611438 0.00625907 0 
-0.00347848 0.00452367 0 
-0.000624015 0.00368838 0 
-0.00838455 -0.0223039 0 
-0.0118775 -0.0229456 0 
-0.0120506 -0.0213006 0 
-0.0140392 -0.0168688 0 
-0.0169111 -0.0100584 0 
-0.0149061 -0.00581595 0 
-0.0160936 0.00422309 0 
-0.039681 0.0331784 0 
-0.0167358 4.59582e-005 0 
-0.00922661 0.00396396 0 
-0.00617961 -0.0300344 0 
-0.00605484 -0.0366869 0 
-0.00802489 -0.0312516 0 
-0.0113571 -0.0216585 0 
-0.0174609 -0.0221432 0 
-0.019743 -0.014758 0 
-0.0154398 0.000536233 0 
-0.0187257 0.0107707 0 
-0.0164687 0.0118134 0 
-0.0109801 0.00836844 0 
-0.00169781 -0.0571843 0 
-0.00197999 -0.0565149 0 
-0.0070579 -0.0298782 0 
-0.00983207 -0.0245975 0 
-0.0177475 -0.0203237 0 
-0.0103134 -0.0113271 0 
-0.0099438 0.00632491 0 
-0.0241842 0.0417893 0 
-0.0188279 0.0312037 0 
-0.00935523 0.0130216 0 
-0.00282623 -0.0359057 0 
-0.00266035 -0.0378207 0 
-0.00291686 -0.0313654 0 
-0.00266057 -0.0259391 0 
-0.000465451 -0.0229617 0 
0.00789944 -0.022026 0 
0.0135204 -0.015818 0 
0.0109683 0.00416556 0 
0.00265512 0.00950088 0 
-0.000344748 0.00666128 0 
0.00464346 -0.0317515 0 
0.00853177 -0.036136 0 
0.0103448 -0.0368202 0 
0.0125823 -0.0309548 0 
0.0210303 -0.0331987 0 
0.0245248 -0.0315754 0 
0.03132 0.00434737 0 
0.0298307 0.00667114 0 
0.0181834 0.00197607 0 
0.0101356 0.000681482 0 
0.00253896 -0.0271331 0 
0.00527772 -0.0301575 0 
0.0090989 -0.0359055 0 
0.0118181 -0.041022 0 
0.011492 -0.0350087 0 
0.0130643 -0.0253591 0 
0.0158054 -0.017599 0 
0.0173934 -0.00975338 0 
0.0159921 -0.00559539 0 
0.0121642 -0.00437276 0 
0.0291818 -0.0472063 0 
0.0290625 -0.04573 0 
0.0289727 -0.0440688 0 
0.0288995 -0.0422567 0 
0.0288359 -0.0404029 0 
0.0287914 -0.0386964 0 
0.0287953 -0.0373688 0 
0.0288886 -0.0366179 0 
0.0291054 -0.0365296 0 
0.0294567 -0.0370523 0 
0.026519 -0.0513552 0 
0.0253248 -0.0505356 0 
0.0251395 -0.0490569 0 
0.0261299 -0.0426805 0 
0.0265257 -0.0306563 0 
0.025754 -0.0207067 0 
0.0265111 -0.0244815 0 
0.0285696 -0.0318671 0 
0.0307912 -0.037894 0 
0.0326553 -0.0420691 0 
0.0282429 -0.0662155 0 
0.0277993 -0.063319 0 
0.0275734 -0.0574142 0 
0.0265689 -0.0515347 0 
0.0250118 -0.0451562 0 
0.0224779 -0.0379233 0 
0.0272894 -0.0407162 0 
0.0334061 -0.0434059 0 
0.0363134 -0.0451761 0 
0.0374449 -0.0470845 0 
0.0269297 -0.0744248 0 
0.0212275 -0.0836019 0 
0.0236297 -0.0785916 0 
0.0307767 -0.0617727 0 
0.0329671 -0.0531332 0 
0.0345486 -0.0496829 0 
0.0397336 -0.0467538 0 
0.0417711 -0.0465215 0 
0.0428066 -0.0498922 0 
0.0419011 -0.05184 0 
0.0322442 -0.0702021 0 
0.0316141 -0.0698669 0 
0.031097 -0.0701105 0 
0.0336474 -0.0670661 0 
0.0395357 -0.0630006 0 
0.0465601 -0.0638498 0 
0.0427597 -0.0587702 0 
0.0433288 -0.0539226 0 
0.0438833 -0.0534189 0 
0.0435034 -0.0558903 0 
0.0299447 -0.0748939 0 
0.0296082 -0.0734176 0 
0.0322143 -0.066997 0 
0.0349642 -0.0638555 0 
0.0367475 -0.0632735 0 
0.0410736 -0.0643487 0 
0.0442677 -0.0645287 0 
0.0456829 -0.0636051 0 
0.0456584 -0.0614565 0 
0.0458605 -0.0612653 0 
0.0337274 -0.0778444 0 
0.0292432 -0.0771991 0 
0.0290439 -0.072221 0 
0.0215289 -0.0490799 0 
0.033926 -0.0616028 0 
0.0410664 -0.0671781 0 
0.0471844 -0.0700393 0 
0.0569438 -0.091484 0 
0.0458744 -0.0587521 0 
0.0490378 -0.0641471 0 
0.0369083 -0.0872768 0 
0.0366624 -0.0941867 0 
0.0351362 -0.0834331 0 
0.0335863 -0.065121 0 
0.0450624 -0.0750308 0 
0.0475704 -0.0755875 0 
0.0516848 -0.0725732 0 
0.0557158 -0.0696897 0 
0.0575711 -0.0677674 0 
0.0557505 -0.068267 0 
0.0398706 -0.120895 0 
0.0400708 -0.119778 0 
0.04258 -0.0846818 0 
0.0460182 -0.0769053 0 
0.049418 -0.0789894 0 
0.0546356 -0.07876 0 
0.0637925 -0.0771494 0 
0.0829498 -0.0757328 0 
0.0759644 -0.0747309 0 
0.0633974 -0.0725863 0 
0.0419777 -0.0953798 0 
0.0426888 -0.0972383 0 
0.0449958 -0.08889 0 
0.0486142 -0.0828602 0 
0.0545393 -0.0839067 0 
0.0669091 -0.092641 0 
0.0734273 -0.0935654 0 
0.0702779 -0.0789927 0 
0.0683619 -0.0761875 0 
0.063795 -0.0748407 0 
0.0488809 -0.0833295 0 
0.0495061 -0.0826894 0 
0.0514143 -0.0836976 0 
0.0623994 -0.0914781 0 
0.0803725 -0.108493 0 
0.084268 -0.110361 0 
0.0714275 -0.0745716 0 
0.0699671 -0.0722216 0 
0.0674024 -0.0760286 0 
0.0644368 -0.0764456 0 
0.0480811 -0.0827466 0 
0.0491146 -0.0824826 0 
0.0491751 -0.0821335 0 
0.0483715 -0.0818149 0 
0.0529319 -0.0839017 0 
0.0620165 -0.0880542 0 
0.0668408 -0.0878519 0 
0.0670474 -0.0830802 0 
0.0656221 -0.0797535 0 
0.063503 -0.0782657 0 
0.0357555 -0.0584358 0 
0.0355345 -0.0567994 0 
0.0353993 -0.0548492 0 
0.0353241 -0.0526413 0 
0.0352873 -0.0503312 0 
0.0352873 -0.0481783 0 
0.035351 -0.0464956 0 
0.0355257 -0.0455496 0 
0.0358562 -0.0454587 0 
0.0363621 -0.0461579 0 
0.0306436 -0.0658777 0 
0.0283058 -0.0663123 0 
0.0279572 -0.0647377 0 
0.030033 -0.0556875 0 
0.0317946 -0.0387962 0 
0.0317016 -0.024768 0 
0.0323932 -0.0301655 0 
0.0346097 -0.0408074 0 
0.0373166 -0.0494906 0 
0.039858 -0.0553568 0 
0.0365717 -0.0740487 0 
0.0348882 -0.0729314 0 
0.0331854 -0.0696806 0 
0.030273 -0.0663612 0 
0.0266856 -0.061179 0 
0.0215946 -0.0545396 0 
0.0288302 -0.0578157 0 
0.0367028 -0.0630626 0 
0.0406291 -0.0667087 0 
0.0436587 -0.0687403 0 
0.0363922 -0.079177 0 
0.0262754 -0.0885798 0 
0.0295988 -0.0848682 0 
0.0379801 -0.0737848 0 
0.0384081 -0.06954 0 
0.0389072 -0.0693345 0 
0.0417948 -0.073418 0 
0.0445345 -0.077792 0 
0.0516019 -0.0849991 0 
0.0526699 -0.0798224 0 
0.0525588 -0.067097 0 
0.0483201 -0.0707929 0 
0.0447748 -0.0748215 0 
0.0466037 -0.0755074 0 
0.0500045 -0.0779668 0 
0.0505911 -0.0869242 0 
0.052919 -0.0803112 0 
0.0558455 -0.0844828 0 
0.0573698 -0.0858118 0 
0.059615 -0.0792814 0 
0.0611779 -0.0619342 0 
0.0601001 -0.0618763 0 
0.0549549 -0.0632716 0 
0.0552127 -0.0707476 0 
0.0569414 -0.0757819 0 
0.0607102 -0.0754562 0 
0.069088 -0.079029 0 
0.0766003 -0.0809464 0 
0.0746322 -0.0784374 0 
0.0715451 -0.0753115 0 
0.0622444 -0.0614883 0 
0.0630121 -0.0610058 0 
0.0593198 -0.0582402 0 
0.0416439 -0.041903 0 
0.0552075 -0.0622511 0 
0.0651553 -0.0694485 0 
0.0830344 -0.0794597 0 
0.125898 -0.119891 0 
0.0881069 -0.075715 0 
0.0819204 -0.0727736 0 
0.0655039 -0.0620214 0 
0.0670316 -0.0629486 0 
0.062015 -0.0583355 0 
0.0541462 -0.0510538 0 
0.0673382 -0.0602686 0 
0.0744803 -0.0645932 0 
0.0845492 -0.0700714 0 
0.0960623 -0.0742582 0 
0.0952965 -0.0694748 0 
0.0884355 -0.0669355 0 
0.0753585 -0.0689308 0 
0.0750755 -0.0684762 0 
0.0662744 -0.0585735 0 
0.0651588 -0.0575746 0 
0.0738455 -0.0607361 0 
0.0787046 -0.058153 0 
0.0915268 -0.0572141 0 
0.120014 -0.058508 0 
0.110591 -0.0583422 0 
0.093306 -0.0585504 0 
0.0700919 -0.0602591 0 
0.0709946 -0.0596585 0 
0.0702081 -0.0548713 0 
0.0707971 -0.050281 0 
0.0737869 -0.0482926 0 
0.0785243 -0.0457649 0 
0.0829456 -0.0399117 0 
0.0891832 -0.0314749 0 
0.0919702 -0.0406762 0 
0.0884205 -0.0480193 0 
0.0726091 -0.0358881 0 
0.0737834 -0.0251061 0 
0.0746071 -0.0227069 0 
0.0767567 -0.0330356 0 
0.0796449 -0.0402768 0 
0.0808026 -0.0380837 0 
0.0849026 -0.00295458 0 
0.0852295 -0.00337222 0 
0.0846535 -0.022597 0 
0.0840381 -0.0352726 0 
0.0713889 -0.0437925 0 
0.0725866 -0.0358984 0 
0.073749 -0.0241902 0 
0.0743066 -0.0151715 0 
0.0751832 -0.0226607 0 
0.077403 -0.0320132 0 
0.0795116 -0.0321071 0 
0.0810505 -0.028101 0 
0.081571 -0.028652 0 
0.0812611 -0.0340763 0 
0.0288704 -0.0639194 0 
0.0282822 -0.0623475 0 
0.0276947 -0.0604462 0 
0.0270976 -0.0582781 0 
0.0265072 -0.0560043 0 
0.0259809 -0.0538835 0 
0.0256125 -0.0522223 0 
0.0255006 -0.0512774 0 
0.0257056 -0.0511601 0 
0.026224 -0.0518053 0 
0.0265406 -0.072325 0 
0.0243192 -0.0734943 0 
0.0236178 -0.0720086 0 
0.0235783 -0.0622569 0 
0.0211662 -0.0450493 0 
0.0175784 -0.0313243 0 
0.0195025 -0.0365078 0 
0.0238696 -0.0467244 0 
0.0279549 -0.0550819 0 
0.0310661 -0.0607293 0 
0.0367269 -0.0779962 0 
0.0347721 -0.0772703 0 
0.0316585 -0.0745042 0 
0.0277989 -0.0716616 0 
0.0246791 -0.0654782 0 
0.0211561 -0.0568053 0 
0.0262962 -0.0615729 0 
0.0325969 -0.0686179 0 
0.0358285 -0.0727817 0 
0.0375679 -0.0744448 0 
0.0397022 -0.082499 0 
0.0364684 -0.0937035 0 
0.0371659 -0.0894334 0 
0.0384054 -0.0770434 0 
0.0375176 -0.0726937 0 
0.0374025 -0.0732201 0 
0.0398168 -0.080479 0 
0.0416153 -0.0851762 0 
0.0448205 -0.0899834 0 
0.0438862 -0.0844978 0 
0.048272 -0.067218 0 
0.0462861 -0.0708045 0 
0.0448858 -0.0748955 0 
0.0461078 -0.0752293 0 
0.0500031 -0.079158 0 
0.0583737 -0.0905783 0 
0.0499733 -0.0834923 0 
0.0472745 -0.088233 0 
0.0471519 -0.0896812 0 
0.0461093 -0.083214 0 
0.0547005 -0.0621096 0 
0.0542748 -0.0613776 0 
0.0513795 -0.0597694 0 
0.0544243 -0.0611279 0 
0.0571798 -0.0631173 0 
0.0530673 -0.0723673 0 
0.0535692 -0.0788451 0 
0.0543987 -0.0812366 0 
0.0516519 -0.0801073 0 
0.0483526 -0.0786279 0 
0.0553943 -0.0622148 0 
0.0566859 -0.0613379 0 
0.0545925 -0.0569949 0 
0.0449483 -0.0368228 0 
0.0533873 -0.0522054 0 
0.0548394 -0.0617575 0 
0.0570418 -0.0769424 0 
0.0797045 -0.112571 0 
0.056673 -0.0750794 0 
0.0481655 -0.0770941 0 
0.0601953 -0.0641786 0 
0.0649191 -0.065638 0 
0.0600751 -0.0573127 0 
0.0517415 -0.041475 0 
0.0593584 -0.0420324 0 
0.0584291 -0.054033 0 
0.049651 -0.0713511 0 
0.042942 -0.0821714 0 
0.0352545 -0.0818509 0 
0.037673 -0.0783267 0 
0.0793887 -0.0772097 0 
0.078866 -0.0759658 0 
0.0591247 -0.0524308 0 
0.0563859 -0.0405942 0 
0.0589194 -0.0482931 0 
0.0490586 -0.0586293 0 
0.0299266 -0.0735076 0 
-0.0199334 -0.102097 0 
-0.00271481 -0.0933682 0 
0.0260737 -0.078778 0 
0.0619262 -0.0652118 0 
0.0626307 -0.0646028 0 
0.0559287 -0.0580948 0 
0.0499277 -0.0525464 0 
0.0473333 -0.0526061 0 
0.0447019 -0.0558832 0 
0.0433801 -0.0569738 0 
0.0415467 -0.0579911 0 
0.033144 -0.0665706 0 
0.0346686 -0.0687593 0 
0.0388125 -0.050993 0 
0.0306368 -0.0468345 0 
0.0289312 -0.0461556 0 
0.0370674 -0.0509849 0 
0.0420014 -0.054996 0 
0.0443797 -0.054143 0 
0.0635628 -0.0368953 0 
0.0631749 -0.0375759 0 
0.0521169 -0.049376 0 
0.0455687 -0.0572579 0 
0.0439303 -0.0552948 0 
0.0382628 -0.0518635 0 
0.0298305 -0.0470576 0 
0.0233251 -0.0434214 0 
0.0296199 -0.0467576 0 
0.0394828 -0.0512081 0 
0.0454987 -0.0516072 0 
0.0495706 -0.0501233 0 
0.0500343 -0.0510578 0 
0.0478009 -0.0545654 0 
0.0341324 -0.074583 0 
0.0339945 -0.0724997 0 
0.0338326 -0.0700084 0 
0.033649 -0.0671875 0 
0.0334572 -0.0642405 0 
0.0332853 -0.0614954 0 
0.0331742 -0.0593395 0 
0.0331656 -0.0580952 0 
0.0332869 -0.0578993 0 
0.0335401 -0.058666 0 
0.0338538 -0.0848875 0 
0.0338896 -0.0862061 0 
0.0337554 -0.0842678 0 
0.033008 -0.0718954 0 
0.0315278 -0.0501087 0 
0.0300336 -0.032891 0 
0.0308604 -0.0392534 0 
0.0329116 -0.0515885 0 
0.0350008 -0.0615283 0 
0.0366527 -0.068243 0 
0.0312932 -0.0923144 0 
0.0314439 -0.0909852 0 
0.0323607 -0.0874012 0 
0.0326418 -0.0838768 0 
0.0306096 -0.0766393 0 
0.0266526 -0.0669075 0 
0.0318281 -0.0702688 0 
0.0387187 -0.0751254 0 
0.0419213 -0.0786091 0 
0.0426558 -0.0809658 0 
0.0292509 -0.0979973 0 
0.0235372 -0.10939 0 
0.0258952 -0.104489 0 
0.0328017 -0.0891925 0 
0.0348424 -0.0823961 0 
0.0373646 -0.0811864 0 
0.0462544 -0.0842309 0 
0.0499449 -0.0874545 0 
0.0510705 -0.0935295 0 
0.0474219 -0.0912987 0 
0.0361057 -0.0840434 0 
0.0343359 -0.0870432 0 
0.0329721 -0.0902548 0 
0.0346188 -0.0891287 0 
0.0382317 -0.0891595 0 
0.0411663 -0.0933364 0 
0.0422027 -0.0915074 0 
0.048327 -0.0950368 0 
0.0496953 -0.0963358 0 
0.0456183 -0.0941136 0 
0.0392707 -0.077981 0 
0.0386263 -0.0769107 0 
0.0361395 -0.0765758 0 
0.0368848 -0.0750147 0 
0.0381072 -0.0748717 0 
0.0392527 -0.0878707 0 
0.0397166 -0.0974563 0 
0.0397112 -0.102385 0 
0.0405617 -0.0996183 0 
0.0412306 -0.0971621 0 
0.0400126 -0.0826022 0 
0.0399914 -0.0774743 0 
0.0375854 -0.0740418 0 
0.0243619 -0.0529557 0 
0.0360319 -0.069936 0 
0.0407205 -0.083151 0 
0.0394282 -0.104422 0 
0.036641 -0.162589 0 
0.0357377 -0.0988044 0 
0.0393032 -0.100261 0 
0.0420587 -0.0905747 0 
0.0431874 -0.0949436 0 
0.0402161 -0.0852308 0 
0.0368689 -0.0679446 0 
0.0522095 -0.0785776 0 
0.0515273 -0.0874768 0 
0.042743 -0.100813 0 
0.0402093 -0.110163 0 
0.0408122 -0.107257 0 
0.0408116 -0.103402 0 
0.0486478 -0.116538 0 
0.0486692 -0.115438 0 
0.0455571 -0.0861022 0 
0.0493781 -0.0778259 0 
0.0538827 -0.0852575 0 
0.047123 -0.0919827 0 
0.0443427 -0.103388 0 
0.0504708 -0.124344 0 
0.0474461 -0.117632 0 
0.0425066 -0.10565 0 
0.0442476 -0.0969297 0 
0.0449089 -0.0975332 0 
0.0442398 -0.0897157 0 
0.0442266 -0.0838481 0 
0.0442794 -0.0855593 0 
0.0429483 -0.0933408 0 
0.0403015 -0.0975634 0 
0.036312 -0.0978438 0 
0.0389061 -0.101241 0 
0.0398552 -0.100266 0 
0.0408739 -0.0765809 0 
0.0395935 -0.0692539 0 
0.0392799 -0.0688 0 
0.0405301 -0.0826343 0 
0.0421399 -0.0975304 0 
0.0411383 -0.0999657 0 
0.0260937 -0.0887763 0 
0.025948 -0.088584 0 
0.0323319 -0.0923869 0 
0.036042 -0.0945719 0 
0.0410139 -0.082107 0 
0.0402776 -0.0769795 0 
0.0391056 -0.0687717 0 
0.0381947 -0.0620367 0 
0.0387631 -0.0703947 0 
0.0390403 -0.0838511 0 
0.0375651 -0.0897935 0 
0.0351889 -0.0908357 0 
0.034677 -0.0912828 0 
0.0359001 -0.0921658 0 
0.0593519 -0.0642289 0 
0.0586777 -0.0626951 0 
0.0579402 -0.0607988 0 
0.0571499 -0.0586107 0 
0.0563526 -0.0563015 0 
0.0556377 -0.0541367 0 
0.0551248 -0.0524232 0 
0.0549284 -0.0514116 0 
0.0551129 -0.0512047 0 
0.0556708 -0.0517322 0 
0.0593073 -0.073592 0 
0.0588193 -0.0757956 0 
0.0581144 -0.0744812 0 
0.0553414 -0.0639077 0 
0.0503186 -0.0458929 0 
0.0459568 -0.0320599 0 
0.0479848 -0.0370326 0 
0.052679 -0.0465206 0 
0.0572972 -0.0540286 0 
0.0610227 -0.059009 0 
0.0616025 -0.0692999 0 
0.0604303 -0.0698247 0 
0.0591991 -0.0709793 0 
0.0567003 -0.0719245 0 
0.0496865 -0.0680473 0 
0.0386739 -0.061556 0 
0.0489116 -0.0626868 0 
0.0606032 -0.0647442 0 
0.0660738 -0.066945 0 
0.0688873 -0.0689589 0 
0.0615462 -0.068637 0 
0.0548789 -0.0675023 0 
0.0570489 -0.068236 0 
0.0620204 -0.0705829 0 
0.0609648 -0.0709988 0 
0.0621314 -0.070807 0 
0.0705639 -0.0707919 0 
0.0749059 -0.0740756 0 
0.0801904 -0.0826664 0 
0.0787341 -0.0787736 0 
0.0711925 -0.0691939 0 
0.0689671 -0.0691249 0 
0.0673028 -0.0697253 0 
0.0693675 -0.0717568 0 
0.0735936 -0.0772208 0 
0.0774191 -0.0868932 0 
0.0773824 -0.0798645 0 
0.0818417 -0.0827363 0 
0.0835221 -0.083951 0 
0.0827215 -0.078628 0 
0.074669 -0.0702016 0 
0.0736713 -0.0692666 0 
0.0712693 -0.0668351 0 
0.0742606 -0.0709172 0 
0.0772593 -0.0746676 0 
0.0807756 -0.0756317 0 
0.0868048 -0.0779972 0 
0.0912974 -0.0784374 0 
0.08995 -0.0766303 0 
0.088487 -0.0750463 0 
0.0769508 -0.0720799 0 
0.0753749 -0.0710004 0 
0.0716705 -0.0667188 0 
0.048687 -0.0441166 0 
0.0722018 -0.0645522 0 
0.0844769 -0.0720153 0 
0.0967202 -0.078317 0 
0.131009 -0.107612 0 
0.0934157 -0.071168 0 
0.0946019 -0.0726738 0 
0.080642 -0.0780624 0 
0.0817832 -0.0826876 0 
0.0769456 -0.0738829 0 
0.0715544 -0.0594288 0 
0.0967672 -0.0708443 0 
0.0995993 -0.0726943 0 
0.100694 -0.0735759 0 
0.106961 -0.0741987 0 
0.106897 -0.0708151 0 
0.102268 -0.070071 0 
0.0897848 -0.101881 0 
0.0898983 -0.10099 0 
0.0874812 -0.0750188 0 
0.0942161 -0.0706526 0 
0.101488 -0.072088 0 
0.100068 -0.0689273 0 
0.109329 -0.0668238 0 
0.138151 -0.0666802 0 
0.127957 -0.0664236 0 
0.109617 -0.0663022 0 
0.085018 -0.0815169 0 
0.0858911 -0.082153 0 
0.0855345 -0.0741144 0 
0.0866755 -0.0671729 0 
0.0902213 -0.0646879 0 
0.0956149 -0.0633436 0 
0.100972 -0.0592645 0 
0.1088 -0.0514717 0 
0.110587 -0.0564647 0 
0.106014 -0.0606988 0 
0.0759356 -0.0582068 0 
0.0693421 -0.0509607 0 
0.0690515 -0.049348 0 
0.0827484 -0.0559892 0 
0.0947379 -0.0620406 0 
0.0980693 -0.0607224 0 
0.107806 -0.0334491 0 
0.108163 -0.0333214 0 
0.104876 -0.0457154 0 
0.10268 -0.053505 0 