# vtk DataFile Version 3.0
Autogenerated from june.txt by weatherdisplay
ASCII
DATASET STRUCTURED_GRID
DIMENSIONS 10 12 30
POINTS 3600 float
-89.3 37 0 
-89.2111 37 0 
-89.1222 37 0 
-89.0333 37 0 
-88.9444 37 0 
-88.8556 37 0 
-88.7667 37 0 
-88.6778 37 0 
-88.5889 37 0 
-88.5 37 0 
-89.5 37.5 0 
-89.3408 37.5 0 
-89.1816 37.5 0 
-89.0223 37.5 0 
-88.8631 37.5 0 
-88.7039 37.5 0 
-88.5447 37.5 0 
-88.3854 37.5 0 
-88.2262 37.5 0 
-88.067 37.5 0 
-90.05 38 0 
-89.825 38 0 
-89.6 38 0 
-89.375 38 0 
-89.15 38 0 
-88.925 38 0 
-88.7 38 0 
-88.475 38 0 
-88.25 38 0 
-88.025 38 0 
-90.267 38.5 0 
-89.9799 38.5 0 
-89.6928 38.5 0 
-89.4057 38.5 0 
-89.1186 38.5 0 
-88.8314 38.5 0 
-88.5443 38.5 0 
-88.2572 38.5 0 
-87.9701 38.5 0 
-87.683 38.5 0 
-90.683 39 0 
-90.3386 39 0 
-89.9941 39 0 
-89.6497 39 0 
-89.3052 39 0 
-88.9608 39 0 
-88.6163 39 0 
-88.2719 39 0 
-87.9274 39 0 
-87.583 39 0 
-91.067 39.5 0 
-90.6743 39.5 0 
-90.2817 39.5 0 
-89.889 39.5 0 
-89.4963 39.5 0 
-89.1037 39.5 0 
-88.711 39.5 0 
-88.3183 39.5 0 
-87.9257 39.5 0 
-87.533 39.5 0 
-91.467 40 0 
-91.0299 40 0 
-90.5928 40 0 
-90.1557 40 0 
-89.7186 40 0 
-89.2814 40 0 
-88.8443 40 0 
-88.4072 40 0 
-87.9701 40 0 
-87.533 40 0 
-91.367 40.5 0 
-90.9401 40.5 0 
-90.5132 40.5 0 
-90.0863 40.5 0 
-89.6594 40.5 0 
-89.2326 40.5 0 
-88.8057 40.5 0 
-88.3788 40.5 0 
-87.9519 40.5 0 
-87.525 40.5 0 
-90.933 41 0 
-90.5543 41 0 
-90.1757 41 0 
-89.797 41 0 
-89.4183 41 0 
-89.0397 41 0 
-88.661 41 0 
-88.2823 41 0 
-87.9037 41 0 
-87.525 41 0 
-91.125 41.5 0 
-90.725 41.5 0 
-90.325 41.5 0 
-89.925 41.5 0 
-89.525 41.5 0 
-89.125 41.5 0 
-88.725 41.5 0 
-88.325 41.5 0 
-87.925 41.5 0 
-87.525 41.5 0 
-90.142 42 0 
-89.8651 42 0 
-89.5882 42 0 
-89.3113 42 0 
-89.0344 42 0 
-88.7576 42 0 
-88.4807 42 0 
-88.2038 42 0 
-87.9269 42 0 
-87.65 42 0 
-90.65 42.508 0 
-90.3333 42.508 0 
-90.0167 42.508 0 
-89.7 42.508 0 
-89.3833 42.508 0 
-89.0667 42.508 0 
-88.75 42.508 0 
-88.4333 42.508 0 
-88.1167 42.508 0 
-87.8 42.508 0 
-89.3 37 0 
-89.2111 37 0 
-89.1222 37 0 
-89.0333 37 0 
-88.9444 37 0 
-88.8556 37 0 
-88.7667 37 0 
-88.6778 37 0 
-88.5889 37 0 
-88.5 37 0 
-89.5 37.5 0 
-89.3408 37.5 0 
-89.1816 37.5 0 
-89.0223 37.5 0 
-88.8631 37.5 0 
-88.7039 37.5 0 
-88.5447 37.5 0 
-88.3854 37.5 0 
-88.2262 37.5 0 
-88.067 37.5 0 
-90.05 38 0 
-89.825 38 0 
-89.6 38 0 
-89.375 38 0 
-89.15 38 0 
-88.925 38 0 
-88.7 38 0 
-88.475 38 0 
-88.25 38 0 
-88.025 38 0 
-90.267 38.5 0 
-89.9799 38.5 0 
-89.6928 38.5 0 
-89.4057 38.5 0 
-89.1186 38.5 0 
-88.8314 38.5 0 
-88.5443 38.5 0 
-88.2572 38.5 0 
-87.9701 38.5 0 
-87.683 38.5 0 
-90.683 39 0 
-90.3386 39 0 
-89.9941 39 0 
-89.6497 39 0 
-89.3052 39 0 
-88.9608 39 0 
-88.6163 39 0 
-88.2719 39 0 
-87.9274 39 0 
-87.583 39 0 
-91.067 39.5 0 
-90.6743 39.5 0 
-90.2817 39.5 0 
-89.889 39.5 0 
-89.4963 39.5 0 
-89.1037 39.5 0 
-88.711 39.5 0 
-88.3183 39.5 0 
-87.9257 39.5 0 
-87.533 39.5 0 
-91.467 40 0 
-91.0299 40 0 
-90.5928 40 0 
-90.1557 40 0 
-89.7186 40 0 
-89.2814 40 0 
-88.8443 40 0 
-88.4072 40 0 
-87.9701 40 0 
-87.533 40 0 
-91.367 40.5 0 
-90.9401 40.5 0 
-90.5132 40.5 0 
-90.0863 40.5 0 
-89.6594 40.5 0 
-89.2326 40.5 0 
-88.8057 40.5 0 
-88.3788 40.5 0 
-87.9519 40.5 0 
-87.525 40.5 0 
-90.933 41 0 
-90.5543 41 0 
-90.1757 41 0 
-89.797 41 0 
-89.4183 41 0 
-89.0397 41 0 
-88.661 41 0 
-88.2823 41 0 
-87.9037 41 0 
-87.525 41 0 
-91.125 41.5 0 
-90.725 41.5 0 
-90.325 41.5 0 
-89.925 41.5 0 
-89.525 41.5 0 
-89.125 41.5 0 
-88.725 41.5 0 
-88.325 41.5 0 
-87.925 41.5 0 
-87.525 41.5 0 
-90.142 42 0 
-89.8651 42 0 
-89.5882 42 0 
-89.3113 42 0 
-89.0344 42 0 
-88.7576 42 0 
-88.4807 42 0 
-88.2038 42 0 
-87.9269 42 0 
-87.65 42 0 
-90.65 42.508 0 
-90.3333 42.508 0 
-90.0167 42.508 0 
-89.7 42.508 0 
-89.3833 42.508 0 
-89.0667 42.508 0 
-88.75 42.508 0 
-88.4333 42.508 0 
-88.1167 42.508 0 
-87.8 42.508 0 
-89.3 37 0 
-89.2111 37 0 
-89.1222 37 0 
-89.0333 37 0 
-88.9444 37 0 
-88.8556 37 0 
-88.7667 37 0 
-88.6778 37 0 
-88.5889 37 0 
-88.5 37 0 
-89.5 37.5 0 
-89.3408 37.5 0 
-89.1816 37.5 0 
-89.0223 37.5 0 
-88.8631 37.5 0 
-88.7039 37.5 0 
-88.5447 37.5 0 
-88.3854 37.5 0 
-88.2262 37.5 0 
-88.067 37.5 0 
-90.05 38 0 
-89.825 38 0 
-89.6 38 0 
-89.375 38 0 
-89.15 38 0 
-88.925 38 0 
-88.7 38 0 
-88.475 38 0 
-88.25 38 0 
-88.025 38 0 
-90.267 38.5 0 
-89.9799 38.5 0 
-89.6928 38.5 0 
-89.4057 38.5 0 
-89.1186 38.5 0 
-88.8314 38.5 0 
-88.5443 38.5 0 
-88.2572 38.5 0 
-87.9701 38.5 0 
-87.683 38.5 0 
-90.683 39 0 
-90.3386 39 0 
-89.9941 39 0 
-89.6497 39 0 
-89.3052 39 0 
-88.9608 39 0 
-88.6163 39 0 
-88.2719 39 0 
-87.9274 39 0 
-87.583 39 0 
-91.067 39.5 0 
-90.6743 39.5 0 
-90.2817 39.5 0 
-89.889 39.5 0 
-89.4963 39.5 0 
-89.1037 39.5 0 
-88.711 39.5 0 
-88.3183 39.5 0 
-87.9257 39.5 0 
-87.533 39.5 0 
-91.467 40 0 
-91.0299 40 0 
-90.5928 40 0 
-90.1557 40 0 
-89.7186 40 0 
-89.2814 40 0 
-88.8443 40 0 
-88.4072 40 0 
-87.9701 40 0 
-87.533 40 0 
-91.367 40.5 0 
-90.9401 40.5 0 
-90.5132 40.5 0 
-90.0863 40.5 0 
-89.6594 40.5 0 
-89.2326 40.5 0 
-88.8057 40.5 0 
-88.3788 40.5 0 
-87.9519 40.5 0 
-87.525 40.5 0 
-90.933 41 0 
-90.5543 41 0 
-90.1757 41 0 
-89.797 41 0 
-89.4183 41 0 
-89.0397 41 0 
-88.661 41 0 
-88.2823 41 0 
-87.9037 41 0 
-87.525 41 0 
-91.125 41.5 0 
-90.725 41.5 0 
-90.325 41.5 0 
-89.925 41.5 0 
-89.525 41.5 0 
-89.125 41.5 0 
-88.725 41.5 0 
-88.325 41.5 0 
-87.925 41.5 0 
-87.525 41.5 0 
-90.142 42 0 
-89.8651 42 0 
-89.5882 42 0 
-89.3113 42 0 
-89.0344 42 0 
-88.7576 42 0 
-88.4807 42 0 
-88.2038 42 0 
-87.9269 42 0 
-87.65 42 0 
-90.65 42.508 0 
-90.3333 42.508 0 
-90.0167 42.508 0 
-89.7 42.508 0 
-89.3833 42.508 0 
-89.0667 42.508 0 
-88.75 42.508 0 
-88.4333 42.508 0 
-88.1167 42.508 0 
-87.8 42.508 0 
-89.3 37 0 
-89.2111 37 0 
-89.1222 37 0 
-89.0333 37 0 
-88.9444 37 0 
-88.8556 37 0 
-88.7667 37 0 
-88.6778 37 0 
-88.5889 37 0 
-88.5 37 0 
-89.5 37.5 0 
-89.3408 37.5 0 
-89.1816 37.5 0 
-89.0223 37.5 0 
-88.8631 37.5 0 
-88.7039 37.5 0 
-88.5447 37.5 0 
-88.3854 37.5 0 
-88.2262 37.5 0 
-88.067 37.5 0 
-90.05 38 0 
-89.825 38 0 
-89.6 38 0 
-89.375 38 0 
-89.15 38 0 
-88.925 38 0 
-88.7 38 0 
-88.475 38 0 
-88.25 38 0 
-88.025 38 0 
-90.267 38.5 0 
-89.9799 38.5 0 
-89.6928 38.5 0 
-89.4057 38.5 0 
-89.1186 38.5 0 
-88.8314 38.5 0 
-88.5443 38.5 0 
-88.2572 38.5 0 
-87.9701 38.5 0 
-87.683 38.5 0 
-90.683 39 0 
-90.3386 39 0 
-89.9941 39 0 
-89.6497 39 0 
-89.3052 39 0 
-88.9608 39 0 
-88.6163 39 0 
-88.2719 39 0 
-87.9274 39 0 
-87.583 39 0 
-91.067 39.5 0 
-90.6743 39.5 0 
-90.2817 39.5 0 
-89.889 39.5 0 
-89.4963 39.5 0 
-89.1037 39.5 0 
-88.711 39.5 0 
-88.3183 39.5 0 
-87.9257 39.5 0 
-87.533 39.5 0 
-91.467 40 0 
-91.0299 40 0 
-90.5928 40 0 
-90.1557 40 0 
-89.7186 40 0 
-89.2814 40 0 
-88.8443 40 0 
-88.4072 40 0 
-87.9701 40 0 
-87.533 40 0 
-91.367 40.5 0 
-90.9401 40.5 0 
-90.5132 40.5 0 
-90.0863 40.5 0 
-89.6594 40.5 0 
-89.2326 40.5 0 
-88.8057 40.5 0 
-88.3788 40.5 0 
-87.9519 40.5 0 
-87.525 40.5 0 
-90.933 41 0 
-90.5543 41 0 
-90.1757 41 0 
-89.797 41 0 
-89.4183 41 0 
-89.0397 41 0 
-88.661 41 0 
-88.2823 41 0 
-87.9037 41 0 
-87.525 41 0 
-91.125 41.5 0 
-90.725 41.5 0 
-90.325 41.5 0 
-89.925 41.5 0 
-89.525 41.5 0 
-89.125 41.5 0 
-88.725 41.5 0 
-88.325 41.5 0 
-87.925 41.5 0 
-87.525 41.5 0 
-90.142 42 0 
-89.8651 42 0 
-89.5882 42 0 
-89.3113 42 0 
-89.0344 42 0 
-88.7576 42 0 
-88.4807 42 0 
-88.2038 42 0 
-87.9269 42 0 
-87.65 42 0 
-90.65 42.508 0 
-90.3333 42.508 0 
-90.0167 42.508 0 
-89.7 42.508 0 
-89.3833 42.508 0 
-89.0667 42.508 0 
-88.75 42.508 0 
-88.4333 42.508 0 
-88.1167 42.508 0 
-87.8 42.508 0 
-89.3 37 0 
-89.2111 37 0 
-89.1222 37 0 
-89.0333 37 0 
-88.9444 37 0 
-88.8556 37 0 
-88.7667 37 0 
-88.6778 37 0 
-88.5889 37 0 
-88.5 37 0 
-89.5 37.5 0 
-89.3408 37.5 0 
-89.1816 37.5 0 
-89.0223 37.5 0 
-88.8631 37.5 0 
-88.7039 37.5 0 
-88.5447 37.5 0 
-88.3854 37.5 0 
-88.2262 37.5 0 
-88.067 37.5 0 
-90.05 38 0 
-89.825 38 0 
-89.6 38 0 
-89.375 38 0 
-89.15 38 0 
-88.925 38 0 
-88.7 38 0 
-88.475 38 0 
-88.25 38 0 
-88.025 38 0 
-90.267 38.5 0 
-89.9799 38.5 0 
-89.6928 38.5 0 
-89.4057 38.5 0 
-89.1186 38.5 0 
-88.8314 38.5 0 
-88.5443 38.5 0 
-88.2572 38.5 0 
-87.9701 38.5 0 
-87.683 38.5 0 
-90.683 39 0 
-90.3386 39 0 
-89.9941 39 0 
-89.6497 39 0 
-89.3052 39 0 
-88.9608 39 0 
-88.6163 39 0 
-88.2719 39 0 
-87.9274 39 0 
-87.583 39 0 
-91.067 39.5 0 
-90.6743 39.5 0 
-90.2817 39.5 0 
-89.889 39.5 0 
-89.4963 39.5 0 
-89.1037 39.5 0 
-88.711 39.5 0 
-88.3183 39.5 0 
-87.9257 39.5 0 
-87.533 39.5 0 
-91.467 40 0 
-91.0299 40 0 
-90.5928 40 0 
-90.1557 40 0 
-89.7186 40 0 
-89.2814 40 0 
-88.8443 40 0 
-88.4072 40 0 
-87.9701 40 0 
-87.533 40 0 
-91.367 40.5 0 
-90.9401 40.5 0 
-90.5132 40.5 0 
-90.0863 40.5 0 
-89.6594 40.5 0 
-89.2326 40.5 0 
-88.8057 40.5 0 
-88.3788 40.5 0 
-87.9519 40.5 0 
-87.525 40.5 0 
-90.933 41 0 
-90.5543 41 0 
-90.1757 41 0 
-89.797 41 0 
-89.4183 41 0 
-89.0397 41 0 
-88.661 41 0 
-88.2823 41 0 
-87.9037 41 0 
-87.525 41 0 
-91.125 41.5 0 
-90.725 41.5 0 
-90.325 41.5 0 
-89.925 41.5 0 
-89.525 41.5 0 
-89.125 41.5 0 
-88.725 41.5 0 
-88.325 41.5 0 
-87.925 41.5 0 
-87.525 41.5 0 
-90.142 42 0 
-89.8651 42 0 
-89.5882 42 0 
-89.3113 42 0 
-89.0344 42 0 
-88.7576 42 0 
-88.4807 42 0 
-88.2038 42 0 
-87.9269 42 0 
-87.65 42 0 
-90.65 42.508 0 
-90.3333 42.508 0 
-90.0167 42.508 0 
-89.7 42.508 0 
-89.3833 42.508 0 
-89.0667 42.508 0 
-88.75 42.508 0 
-88.4333 42.508 0 
-88.1167 42.508 0 
-87.8 42.508 0 
-89.3 37 0 
-89.2111 37 0 
-89.1222 37 0 
-89.0333 37 0 
-88.9444 37 0 
-88.8556 37 0 
-88.7667 37 0 
-88.6778 37 0 
-88.5889 37 0 
-88.5 37 0 
-89.5 37.5 0 
-89.3408 37.5 0 
-89.1816 37.5 0 
-89.0223 37.5 0 
-88.8631 37.5 0 
-88.7039 37.5 0 
-88.5447 37.5 0 
-88.3854 37.5 0 
-88.2262 37.5 0 
-88.067 37.5 0 
-90.05 38 0 
-89.825 38 0 
-89.6 38 0 
-89.375 38 0 
-89.15 38 0 
-88.925 38 0 
-88.7 38 0 
-88.475 38 0 
-88.25 38 0 
-88.025 38 0 
-90.267 38.5 0 
-89.9799 38.5 0 
[...]
POINT_DATA 3600
VECTORS WindVector float
-0.022819 0.0366739 0 
-0.0222501 0.0364529 0 
-0.0216469 0.0361572 0 
-0.0210045 0.0358018 0 
-0.020348 0.0354189 0 
-0.019744 0.035058 0 
-0.0192927 0.0347755 0 
-0.0190931 0.0346189 0 
-0.0192001 0.0346089 0 
-0.0196021 0.0347348 0 
-0.0217342 0.0387214 0 
-0.0199858 0.0393038 0 
-0.0193759 0.0390973 0 
-0.0189312 0.0370486 0 
-0.0155804 0.0336758 0 
-0.0112482 0.0310727 0 
-0.0132827 0.0320828 0 
-0.0174927 0.0341361 0 
-0.0210288 0.0358371 0 
-0.0234644 0.0369307 0 
-0.0295232 0.0383636 0 
-0.0282549 0.0386968 0 
-0.0262496 0.0385235 0 
-0.0241557 0.0383103 0 
-0.0246233 0.0369215 0 
-0.0265966 0.0346189 0 
-0.0262544 0.0369261 0 
-0.0268696 0.040704 0 
-0.0276506 0.0421048 0 
-0.0279511 0.0411297 0 
-0.0317107 0.0386111 0 
-0.0303219 0.0431498 0 
-0.0304535 0.0418526 0 
-0.0307243 0.0383272 0 
-0.0308831 0.0374356 0 
-0.0306865 0.0389161 0 
-0.0304804 0.0465032 0 
-0.029882 0.0465149 0 
-0.0284016 0.038802 0 
-0.029132 0.0389186 0 
-0.0376508 0.0269223 0 
-0.0354111 0.0316857 0 
-0.0336793 0.0355508 0 
-0.0335532 0.0365722 0 
-0.0354906 0.0369228 0 
-0.0405102 0.0366038 0 
-0.0345031 0.0385751 0 
-0.029946 0.038165 0 
-0.0291192 0.0375795 0 
-0.0303871 0.0390018 0 
-0.0447812 0.0117058 0 
-0.0441005 0.0129356 0 
-0.0387949 0.0249471 0 
-0.0352509 0.0318455 0 
-0.0341079 0.0340935 0 
-0.0349954 0.037307 0 
-0.0341988 0.0411506 0 
-0.032368 0.0433971 0 
-0.0315133 0.0421916 0 
-0.0320884 0.0412 0 
-0.0448667 0.0145271 0 
-0.0469616 0.00751453 0 
-0.0448122 0.0121513 0 
-0.0390207 0.0228429 0 
-0.036165 0.0305653 0 
-0.0353532 0.0362057 0 
-0.0348323 0.0444998 0 
-0.0404632 0.0678776 0 
-0.0277178 0.0429085 0 
-0.0330394 0.042959 0 
-0.0489518 0.0109625 0 
-0.0532428 0.00508631 0 
-0.0483902 0.0118424 0 
-0.0388577 0.0238286 0 
-0.0345612 0.0357986 0 
-0.0353725 0.0422811 0 
-0.0368186 0.0437409 0 
-0.0365078 0.047886 0 
-0.0371124 0.0470098 0 
-0.0372575 0.0447018 0 
-0.066842 -0.0120285 0 
-0.0660622 -0.0109544 0 
-0.0437676 0.0187444 0 
-0.0358663 0.0284128 0 
-0.0357545 0.0401939 0 
-0.0390756 0.0400691 0 
-0.0431218 0.0447703 0 
-0.0522187 0.0575484 0 
-0.048562 0.0533987 0 
-0.0421523 0.0460171 0 
-0.0508416 0.00987867 0 
-0.0513379 0.00901137 0 
-0.0448425 0.0176325 0 
-0.0393606 0.0259824 0 
-0.0395799 0.031367 0 
-0.0458719 0.0354475 0 
-0.0488735 0.0381836 0 
-0.045587 0.0420188 0 
-0.0446917 0.0439427 0 
-0.0426542 0.0428886 0 
-0.0343292 0.0222966 0 
-0.0292453 0.0212272 0 
-0.0290623 0.0218061 0 
-0.0395791 0.0286196 0 
-0.0530695 0.0345535 0 
-0.0555232 0.036047 0 
-0.0446495 0.0394173 0 
-0.0437564 0.0397432 0 
-0.0436559 0.0396624 0 
-0.0428183 0.0398321 0 
-0.0377988 0.0233964 0 
-0.0342585 0.0230568 0 
-0.0287647 0.0210045 0 
-0.0243298 0.0186027 0 
-0.0301125 0.0228776 0 
-0.0397536 0.0300695 0 
-0.0439474 0.0342228 0 
-0.0440679 0.0363999 0 
-0.0433344 0.0373816 0 
-0.0425411 0.0377775 0 
-0.0702259 -0.00990505 0 
-0.0685067 -0.00977226 0 
-0.0664541 -0.00966023 0 
-0.0641086 -0.00956372 0 
-0.0616235 -0.00948086 0 
-0.0592792 -0.00941688 0 
-0.0574331 -0.00938486 0 
-0.0564006 -0.00940163 0 
-0.0563283 -0.00948043 0 
-0.0571454 -0.00962511 0 
-0.0759039 -0.00856029 0 
-0.0750493 -0.00797673 0 
-0.0735049 -0.00782478 0 
-0.0663257 -0.00802829 0 
-0.04884 -0.00812696 0 
-0.0320644 -0.00799455 0 
-0.0387303 -0.00816076 0 
-0.0514459 -0.00868355 0 
-0.0611708 -0.00936569 0 
-0.0672418 -0.0100887 0 
-0.0813462 -0.0102993 0 
-0.0811419 -0.00961375 0 
-0.0809483 -0.00890889 0 
-0.0817248 -0.00789864 0 
-0.0879737 -0.00637375 0 
-0.0991993 -0.0042654 0 
-0.0889048 -0.00604437 0 
-0.0810985 -0.00751603 0 
-0.0798389 -0.00833813 0 
-0.0793257 -0.00959708 0 
-0.082666 -0.0103467 0 
-0.0829735 -0.00737517 0 
-0.0828886 -0.0080926 0 
-0.083675 -0.00911409 0 
-0.0863128 -0.00783835 0 
-0.0870852 -0.00735686 0 
-0.0852287 -0.00691432 0 
-0.0843431 -0.00734558 0 
-0.0820795 -0.0103599 0 
-0.0815487 -0.0122322 0 
-0.085336 -0.0139335 0 
-0.0835426 -0.0136536 0 
-0.0823946 -0.0126602 0 
-0.0817819 -0.0122332 0 
-0.0807872 -0.00993292 0 
-0.0775124 -0.00338426 0 
-0.081388 -0.00999483 0 
-0.0823153 -0.0124341 0 
-0.082062 -0.0132837 0 
-0.0821088 -0.0160601 0 
-0.0929906 -0.00909479 0 
-0.0920294 -0.00943097 0 
-0.084313 -0.0161897 0 
-0.0798593 -0.0151888 0 
-0.0786934 -0.0132366 0 
-0.0819529 -0.0165255 0 
-0.0852273 -0.0197706 0 
-0.0860233 -0.0228892 0 
-0.0833143 -0.0228079 0 
-0.0827832 -0.0229579 0 
-0.0916741 -0.0156657 0 
-0.0954627 -0.00818272 0 
-0.0913468 -0.0127298 0 
-0.0791511 -0.0270206 0 
-0.0787268 -0.0206888 0 
-0.0814072 -0.0220508 0 
-0.0903324 -0.0279448 0 
-0.136384 -0.0403987 0 
-0.0737053 -0.0269819 0 
-0.0830501 -0.0290665 0 
-0.0958386 -0.0215588 0 
-0.101582 -0.022905 0 
-0.0931446 -0.0246722 0 
-0.0756034 -0.0258474 0 
-0.0732661 -0.0268827 0 
-0.0835175 -0.0305583 0 
-0.0885556 -0.033892 0 
-0.0933848 -0.0382805 0 
-0.0919003 -0.0401215 0 
-0.0886139 -0.037402 0 
-0.120731 -0.0279781 0 
-0.119219 -0.0281673 0 
-0.0818894 -0.0267885 0 
-0.0662218 -0.0253491 0 
-0.078995 -0.0316492 0 
-0.0816053 -0.0370956 0 
-0.091942 -0.0468155 0 
-0.127 -0.0693331 0 
-0.114227 -0.0610472 0 
-0.0928753 -0.0461388 0 
-0.0953186 -0.0283047 0 
-0.095083 -0.0293604 0 
-0.0830633 -0.0311436 0 
-0.0723609 -0.0339499 0 
-0.070914 -0.0386188 0 
-0.0745142 -0.0480441 0 
-0.0724928 -0.0532686 0 
-0.0651348 -0.0517563 0 
-0.0766575 -0.0507243 0 
-0.0799835 -0.0460046 0 
-0.0578797 -0.0399512 0 
-0.0447167 -0.0444043 0 
-0.0424676 -0.0465187 0 
-0.0587217 -0.0495636 0 
-0.0745656 -0.0591604 0 
-0.0738288 -0.0613971 0 
-0.029152 -0.0514329 0 
-0.0292021 -0.0503271 0 
-0.0504736 -0.0484764 0 
-0.0636015 -0.0460045 0 
-0.0676144 -0.036292 0 
-0.0579345 -0.0399119 0 
-0.0437076 -0.0444519 0 
-0.0327344 -0.0474731 0 
-0.0431363 -0.0471632 0 
-0.0575951 -0.0483685 0 
-0.0598522 -0.0494616 0 
-0.0555653 -0.0486718 0 
-0.055677 -0.0471678 0 
-0.0608585 -0.0452104 0 
0.0341099 0.0665498 0 
0.0350206 0.0660419 0 
0.0357911 0.0656121 0 
0.0364766 0.0652433 0 
0.0371011 0.064928 0 
0.0376171 0.0646793 0 
0.0378973 0.0645327 0 
0.037778 0.064533 0 
0.0371369 0.0647124 0 
0.035951 0.0650733 0 
0.0446681 0.0636617 0 
0.0509509 0.0606837 0 
0.0521432 0.0598825 0 
0.0480997 0.0607587 0 
0.0472648 0.0610654 0 
0.051006 0.0603574 0 
0.0481314 0.061091 0 
0.0409763 0.0631929 0 
0.033651 0.0655683 0 
0.0274734 0.0676379 0 
0.02436 0.0878731 0 
0.0287918 0.0838547 0 
0.0342445 0.0744738 0 
0.041694 0.0645762 0 
0.0459635 0.0559774 0 
0.0499072 0.0462021 0 
0.0412161 0.0557173 0 
0.0319316 0.0655021 0 
0.0261074 0.0692865 0 
0.0196863 0.0708736 0 
0.021544 0.0994018 0 
0.0403486 0.116126 0 
0.0345332 0.108475 0 
0.0202534 0.0841412 0 
0.0198066 0.0731177 0 
0.0212755 0.070228 0 
0.0253427 0.0726547 0 
0.021409 0.0725661 0 
0.00259634 0.0715543 0 
0.000559408 0.073871 0 
-0.0103001 0.0814791 0 
-0.00391799 0.0865677 0 
0.00224784 0.091662 0 
-0.00101085 0.0901562 0 
-0.00658329 0.0892792 0 
-0.0113946 0.0984809 0 
-0.00665095 0.0860822 0 
-0.00680429 0.0767076 0 
-0.00894305 0.0752218 0 
-0.0118785 0.0787797 0 
-0.0199047 0.0727399 0 
-0.0198883 0.0727503 0 
-0.0229176 0.0770627 0 
-0.0295607 0.0833225 0 
-0.0335445 0.0870344 0 
-0.0262647 0.0885031 0 
-0.0304848 0.0934103 0 
-0.0364654 0.0952544 0 
-0.0333551 0.0903576 0 
-0.0300146 0.0873959 0 
-0.0267536 0.0756989 0 
-0.0222444 0.0713425 0 
-0.0248125 0.0703541 0 
-0.0288226 0.0611132 0 
-0.0362454 0.0757368 0 
-0.0403549 0.0833005 0 
-0.0511287 0.100425 0 
-0.0951141 0.16408 0 
-0.0489201 0.0910973 0 
-0.0453075 0.0925365 0 
-0.0364486 0.0799199 0 
-0.0413376 0.0818592 0 
-0.0407285 0.0760306 0 
-0.0394204 0.0636099 0 
-0.0535301 0.0627821 0 
-0.055528 0.0747851 0 
-0.0580701 0.0936873 0 
-0.0666569 0.103512 0 
-0.0663032 0.0997009 0 
-0.0581007 0.0959499 0 
-0.055119 0.09353 0 
-0.0554531 0.0925931 0 
-0.0477429 0.0723759 0 
-0.0508687 0.0616983 0 
-0.0579095 0.0695943 0 
-0.059194 0.0823162 0 
-0.0717533 0.0960351 0 
-0.109385 0.114506 0 
-0.0952316 0.108727 0 
-0.0692273 0.0981961 0 
-0.0453348 0.0830498 0 
-0.0475245 0.0828352 0 
-0.0467509 0.077631 0 
-0.0478075 0.0739061 0 
-0.0528589 0.0778903 0 
-0.0637216 0.0911085 0 
-0.0697875 0.0971098 0 
-0.0693782 0.092775 0 
-0.0709654 0.0948875 0 
-0.0646737 0.0937643 0 
-0.0405512 0.069234 0 
-0.0369531 0.0631834 0 
-0.0379406 0.0636588 0 
-0.0529433 0.0806435 0 
-0.0727743 0.102476 0 
-0.0765441 0.106011 0 
-0.0614554 0.083863 0 
-0.0604457 0.0828332 0 
-0.0612139 0.0871194 0 
-0.0600791 0.0890705 0 
-0.0411004 0.0744236 0 
-0.0396576 0.070166 0 
-0.0357049 0.0628779 0 
-0.031702 0.0566034 0 
-0.0392496 0.0657892 0 
-0.052551 0.0811674 0 
-0.0589058 0.087642 0 
-0.0594557 0.0875017 0 
-0.0585028 0.0869436 0 
-0.0570902 0.0872531 0 
0.0501959 0.0498159 0 
0.0499969 0.0499686 0 
0.0497392 0.0502909 0 
0.0494335 0.0507527 0 
0.0491035 0.0512958 0 
0.0487845 0.0518403 0 
0.048514 0.0523025 0 
0.0483184 0.0526207 0 
0.0482027 0.0527751 0 
0.0481501 0.0527897 0 
0.0523823 0.0450841 0 
0.0525304 0.0428349 0 
0.0523437 0.0427531 0 
0.0510403 0.0462431 0 
0.0484041 0.052269 0 
0.0462133 0.0568655 0 
0.0469225 0.0553822 0 
0.0480121 0.0529445 0 
0.0485123 0.0514797 0 
0.0485076 0.0508889 0 
0.0561279 0.0596811 0 
0.0560052 0.0569652 0 
0.0546764 0.0511437 0 
0.0540188 0.0447344 0 
0.0553764 0.0388015 0 
0.0583189 0.0316546 0 
0.0550839 0.0388528 0 
0.0521641 0.0451044 0 
0.050824 0.0466717 0 
0.0493344 0.0471598 0 
0.058977 0.0661056 0 
0.0678094 0.0736687 0 
0.0644176 0.0698415 0 
0.0550198 0.0570122 0 
0.0530393 0.0501177 0 
0.0525983 0.0473153 0 
0.0522001 0.0464027 0 
0.0505239 0.0432494 0 
0.0451917 0.0377249 0 
0.0451908 0.0437544 0 
0.0476017 0.0581185 0 
0.050096 0.0608134 0 
0.0524121 0.0630228 0 
0.0508419 0.0621062 0 
0.0490354 0.062117 0 
0.0499462 0.0684934 0 
0.0477531 0.0578033 0 
0.0444417 0.0440426 0 
0.0431366 0.041478 0 
0.0430296 0.049827 0 
0.0430052 0.0496446 0 
0.0428615 0.0498733 0 
0.0441606 0.0570049 0 
0.0416016 0.0586498 0 
0.0397878 0.0586166 0 
0.0438513 0.063076 0 
0.0442976 0.0660752 0 
0.0426421 0.0665351 0 
0.0405838 0.0634088 0 
0.0397554 0.0624291 0 
0.0461765 0.056214 0 
0.0430858 0.0482685 0 
0.0434048 0.051126 0 
0.0434076 0.0565327 0 
0.0410193 0.059166 0 
0.0407821 0.0637089 0 
0.0423985 0.0736576 0 
0.062534 0.104902 0 
0.0334193 0.0680396 0 
0.0352861 0.0705572 0 
0.0532723 0.0631811 0 
0.05947 0.0655917 0 
0.0543552 0.0638632 0 
0.0438457 0.0587407 0 
0.0419806 0.060989 0 
0.0407336 0.067782 0 
0.0361526 0.0761725 0 
0.0322647 0.082578 0 
0.0279345 0.0827621 0 
0.029177 0.0792396 0 
0.0793717 0.0763591 0 
0.0784397 0.0760764 0 
0.0484823 0.0644948 0 
0.0404067 0.0594527 0 
0.0394284 0.0670008 0 
0.0315844 0.0751654 0 
0.0223413 0.0877078 0 
0.00979298 0.113113 0 
0.0137762 0.10406 0 
0.0214633 0.0877115 0 
0.0551039 0.0697721 0 
0.0554739 0.0705321 0 
0.0449671 0.0687165 0 
0.0345504 0.0683952 0 
0.0274839 0.0733121 0 
0.0174379 0.0859492 0 
0.00862081 0.0928749 0 
0.0024402 0.091141 0 
0.0087024 0.0908471 0 
0.0159448 0.0862478 0 
0.0237708 0.0675593 0 
0.0149051 0.0659849 0 
0.011735 0.0673665 0 
0.0120675 0.0797774 0 
0.00690233 0.0981999 0 
0.00301286 0.102016 0 
-0.0168383 0.0888708 0 
-0.0160262 0.0876789 0 
-0.00156658 0.086683 0 
0.00838312 0.0848131 0 
0.0298587 0.0685861 0 
0.023021 0.0678869 0 
0.0142804 0.0656688 0 
0.00833649 0.0632422 0 
0.010482 0.0690527 0 
0.0109419 0.0798444 0 
0.00747621 0.0853006 0 
0.00379396 0.0857707 0 
0.0044176 0.0847388 0 
0.00893605 0.0832045 0 
0.00235485 0.0192444 0 
0.00193594 0.0192351 0 
0.0015536 0.0191305 0 
0.00117255 0.0189521 0 
0.00078191 0.0187329 0 
0.000422566 0.0185128 0 
0.000190704 0.01833 0 
0.000203455 0.0182109 0 
0.000542779 0.0181641 0 
0.00121704 0.01818 0 
-0.00343874 0.0227334 0 
-0.00714479 0.0241359 0 
-0.00762888 0.0241343 0 
-0.00442253 0.0218087 0 
-0.0047023 0.0185852 0 
-0.00879764 0.0164765 0 
-0.00632919 0.0172216 0 
-0.00100504 0.0187085 0 
0.00360452 0.0198831 0 
0.00691452 0.0205091 0 
0.00412959 0.0202819 0 
0.00315376 0.0215834 0 
0.00275606 0.0219761 0 
0.00233068 0.0224851 0 
0.009125 0.0213778 0 
0.0209245 0.019008 0 
0.015416 0.0216637 0 
0.011398 0.0262301 0 
0.0111983 0.0279721 0 
0.0121515 0.0266582 0 
0.00269181 0.0201904 0 
-0.00725911 0.0317644 0 
-0.00349401 0.02865 0 
0.00838584 0.0222358 0 
0.0141473 0.0235045 0 
0.0155019 0.0260185 0 
0.0125518 0.0344195 0 
0.0119676 0.0360725 0 
0.0138019 0.030354 0 
0.0160091 0.026156 0 
0.0187498 -0.002335 0 
0.012864 0.00286933 0 
0.00801087 0.00822904 0 
0.00898921 0.0100729 0 
0.012956 0.0210317 0 
0.0124263 0.0427717 0 
0.0164928 0.0282792 0 
0.017138 0.0265053 0 
0.0176277 0.026157 0 
0.0214066 0.0216691 0 
0.0317532 -0.0138402 0 
0.0295913 -0.0141209 0 
0.0175196 -0.0140671 0 
0.00628932 -0.0209604 0 
0.00211596 -0.0244512 0 
0.0180888 0.00221628 0 
0.0284052 0.0111665 0 
0.0345859 0.0124894 0 
0.0329622 0.0145493 0 
0.0315938 0.0149523 0 
0.0329768 -0.0162511 0 
0.0350868 -0.0170688 0 
0.0288586 -0.0191449 0 
0.00465044 -0.028006 0 
0.00905356 -0.0263396 0 
0.0199963 -0.0164573 0 
0.0398627 -0.000842608 0 
0.0813862 -0.00912892 0 
0.0395052 0.0144597 0 
0.0399632 0.0126757 0 
0.0393334 -0.0232135 0 
0.0437872 -0.0294294 0 
0.0341881 -0.0294398 0 
0.0178579 -0.0290945 0 
0.0261073 -0.033634 0 
0.032803 -0.0246247 0 
0.0437744 -0.00239475 0 
0.052797 0.0113978 0 
0.0526314 0.0166458 0 
0.0484505 0.014308 0 
0.0631447 -0.0429451 0 
0.0621544 -0.0430499 0 
0.0353034 -0.0298489 0 
0.0272581 -0.0311694 0 
0.0341587 -0.0294475 0 
0.0431479 -0.0129608 0 
0.0566388 0.00795078 0 
0.0811288 0.0371576 0 
0.0726164 0.0298608 0 
0.0569026 0.0174343 0 
0.0464098 -0.0273607 0 
0.0477815 -0.0294257 0 
0.0425701 -0.025765 0 
0.0397995 -0.0223791 0 
0.0442055 -0.0182883 0 
0.0574669 -0.0113363 0 
0.0653738 -0.00108313 0 
0.0641904 0.0177854 0 
0.0623708 0.0190422 0 
0.0567073 0.0149822 0 
0.0431527 -0.0216777 0 
0.0439561 -0.0235013 0 
0.0457922 -0.0230512 0 
0.055101 -0.0164196 0 
0.0718168 -0.0138608 0 
0.0758091 -0.0102462 0 
0.0661908 0.028729 0 
0.0648031 0.0302419 0 
0.0610282 0.0195027 0 
0.0572074 0.0141262 0 
0.0422807 -0.0178932 0 
0.043222 -0.0193717 0 
0.043857 -0.0226381 0 
0.0438325 -0.0258444 0 
0.0472887 -0.0204186 0 
0.054849 -0.0104174 0 
0.0593532 -0.0013286 0 
0.0598555 0.00731455 0 
0.058428 0.0107492 0 
0.0558936 0.0100337 0 
-0.0354367 -0.023738 0 
-0.0347849 -0.023395 0 
-0.0339632 -0.0230986 0 
-0.0329895 -0.0228341 0 
-0.0319338 -0.0225971 0 
-0.0309259 -0.0224041 0 
-0.0301347 -0.0222937 0 
-0.0297126 -0.0223139 0 
-0.0297345 -0.0224999 0 
-0.030172 -0.0228588 0 
-0.0381213 -0.0203542 0 
-0.0379785 -0.0187449 0 
-0.0374221 -0.018368 0 
-0.0344254 -0.0190865 0 
-0.026388 -0.0191581 0 
-0.0182233 -0.018351 0 
-0.0216228 -0.0189963 0 
-0.0282574 -0.0207118 0 
-0.0334065 -0.0226413 0 
-0.0365605 -0.0244639 0 
-0.0372033 -0.0238164 0 
-0.0380954 -0.0222551 0 
-0.03952 -0.0212833 0 
-0.0414427 -0.0195325 0 
-0.0462592 -0.0170934 0 
-0.0537097 -0.0137505 0 
-0.0491359 -0.0171279 0 
-0.0475285 -0.0199923 0 
-0.0478546 -0.0217225 0 
-0.0464426 -0.0243548 0 
-0.0356201 -0.023367 0 
-0.0359811 -0.0118458 0 
-0.0365988 -0.0152228 0 
-0.0401196 -0.0230149 0 
-0.0442651 -0.0224635 0 
-0.0475352 -0.0215283 0 
-0.0545302 -0.0194783 0 
-0.0556367 -0.0202467 0 
-0.0496846 -0.0269866 0 
-0.0464706 -0.0302473 0 
-0.031089 -0.0439019 0 
-0.0326917 -0.0379579 0 
-0.0339001 -0.0323945 0 
-0.0348697 -0.0320247 0 
-0.0371706 -0.0297727 0 
-0.0376991 -0.020897 0 
-0.0414917 -0.0291874 0 
-0.0460037 -0.0316247 0 
-0.0462224 -0.0328085 0 
-0.0431168 -0.0373305 0 
-0.0240038 -0.0552925 0 
-0.0241854 -0.0541046 0 
-0.0292284 -0.0486989 0 
-0.027573 -0.0446567 0 
-0.0258201 -0.0432278 0 
-0.0340378 -0.0432448 0 
-0.0378253 -0.0473062 0 
-0.0387101 -0.0517084 0 
-0.0379248 -0.0498576 0 
-0.0375866 -0.0490934 0 
-0.0284876 -0.0593914 0 
-0.0227846 -0.0584099 0 
-0.0253202 -0.0566405 0 
-0.032528 -0.0489306 0 
-0.0288179 -0.0498544 0 
-0.0307474 -0.0536386 0 
-0.036778 -0.0626045 0 
-0.0591998 -0.098525 0 
-0.0298271 -0.0547088 0 
-0.0332145 -0.0580803 0 
-0.0333527 -0.0683439 0 
-0.0357365 -0.0739679 0 
-0.0346737 -0.0680283 0 
-0.0310165 -0.0567425 0 
-0.0302201 -0.0629466 0 
-0.0328328 -0.0667295 0 
-0.0328124 -0.0687274 0 
-0.0312526 -0.0718429 0 
-0.0281111 -0.0710395 0 
-0.029669 -0.0679273 0 
-0.0446043 -0.093631 0 
-0.0442685 -0.0930202 0 
-0.0324677 -0.0691682 0 
-0.0279314 -0.0624457 0 
-0.0317194 -0.0696169 0 
-0.0305739 -0.0740647 0 
-0.0267471 -0.0814375 0 
-0.0166931 -0.100197 0 
-0.0200614 -0.0922506 0 
-0.02612 -0.0775692 0 
-0.0362742 -0.0774668 0 
-0.036476 -0.0795639 0 
-0.0329331 -0.0757158 0 
-0.029814 -0.0742051 0 
-0.0293618 -0.0787182 0 
-0.0304897 -0.0920341 0 
-0.0288958 -0.0963362 0 
-0.0227296 -0.0843308 0 
-0.0231269 -0.0823789 0 
-0.0256207 -0.0778979 0 
-0.026182 -0.0804694 0 
-0.0228155 -0.0845851 0 
-0.0223052 -0.0871116 0 
-0.0269563 -0.0934952 0 
-0.0326 -0.111887 0 
-0.0326294 -0.114464 0 
-0.0180508 -0.0782444 0 
-0.0175724 -0.0757319 0 
-0.0219557 -0.0785515 0 
-0.0246162 -0.0778183 0 
-0.0286629 -0.0762781 0 
-0.0261715 -0.0797178 0 
-0.0225423 -0.0842501 0 
-0.0197599 -0.0873701 0 
-0.0224642 -0.0875071 0 
-0.0262791 -0.0895894 0 
-0.0266511 -0.0891525 0 
-0.0249519 -0.0843836 0 
-0.0244246 -0.0806801 0 
-0.0253281 -0.0783507 0 
0.0275759 -0.00157926 0 
0.0262623 -0.00109655 0 
0.0246686 -0.000579247 0 
0.0228493 -4.1845e-005 0 
0.0209397 0.000484773 0 
0.0191521 0.000958288 0 
0.0177319 0.00133709 0 
0.0168778 0.0015949 0 
0.016669 0.00172937 0 
0.0170455 0.00175899 0 
0.0346933 -0.00310907 0 
0.0361698 -0.00332336 0 
0.035052 -0.00288106 0 
0.0267162 -0.000364954 0 
0.0123651 0.00270731 0 
0.00136056 0.00408998 0 
0.00521905 0.00392318 0 
0.0123866 0.00386599 0 
0.0178685 0.00391817 0 
0.0214249 0.00382043 0 
0.0323555 -0.00639472 0 
0.03239 -0.00491316 0 
0.0330246 -0.00300411 0 
0.0336196 -0.000960941 0 
0.0311229 0.00321329 0 
0.0272546 0.00880516 0 
0.0259603 0.00831232 0 
0.0243874 0.0104046 0 
0.0244616 0.0114875 0 
0.0255801 0.00988025 0 
0.0321078 -0.00916838 0 
0.0296974 -0.0071134 0 
0.0304986 -0.00656895 0 
0.032616 -0.00219438 0 
0.0325334 0.00341408 0 
0.030682 0.00778267 0 
0.0253252 0.0174053 0 
0.0242633 0.0203283 0 
0.0270694 0.0162005 0 
0.0286613 0.00989826 0 
0.036093 -0.01852 0 
0.0347872 -0.015758 0 
0.033591 -0.0133715 0 
0.0340852 -0.0112504 0 
0.0376581 -0.00315868 0 
0.0451014 0.00893032 0 
0.0363725 0.00407689 0 
0.0303054 0.00942963 0 
0.0295885 0.0101871 0 
0.0314668 0.00267461 0 
0.0369133 -0.0276196 0 
0.0361864 -0.0270684 0 
0.0358671 -0.0223472 0 
0.0324317 -0.0269341 0 
0.0305964 -0.0304702 0 
0.036407 -0.0157163 0 
0.0366671 -0.0134391 0 
0.03502 -0.0148757 0 
0.0345499 -0.0117987 0 
0.0351823 -0.0101024 0 
0.0424631 -0.0266733 0 
0.0379685 -0.0298673 0 
0.0376755 -0.026872 0 
0.0322187 -0.014969 0 
0.0349938 -0.0253294 0 
0.038389 -0.025232 0 
0.0382882 -0.0257753 0 
0.0356856 -0.053915 0 
0.0339878 -0.0191376 0 
0.0379144 -0.0172092 0 
0.052073 -0.0285285 0 
0.0581314 -0.0303841 0 
0.0526018 -0.0269485 0 
0.0426919 -0.0217673 0 
0.0516835 -0.0261768 0 
0.0507593 -0.0256843 0 
0.0442635 -0.0252483 0 
0.0426093 -0.0232811 0 
0.0441064 -0.0192492 0 
0.0435498 -0.0188329 0 
0.0793763 -0.0367114 0 
0.0788282 -0.036511 0 
0.0544577 -0.0290122 0 
0.0509543 -0.0280275 0 
0.0539455 -0.0277302 0 
0.0509288 -0.0283916 0 
0.0520569 -0.0242585 0 
0.0633196 -0.0103185 0 
0.0584195 -0.0140455 0 
0.0497283 -0.0195112 0 
0.059246 -0.0314198 0 
0.0607563 -0.0324753 0 
0.0541884 -0.0319296 0 
0.0491898 -0.0324606 0 
0.0493307 -0.0350783 0 
0.0534127 -0.0429196 0 
0.0554863 -0.0439488 0 
0.0537318 -0.0307782 0 
0.052923 -0.0255076 0 
0.0501567 -0.0241254 0 
0.0422325 -0.0377038 0 
0.0369913 -0.0418157 0 
0.0366106 -0.043702 0 
0.046298 -0.0463241 0 
0.0577596 -0.0582229 0 
0.0599501 -0.0599002 0 
0.053051 -0.0342129 0 
0.05237 -0.031923 0 
0.0515477 -0.0313716 0 
0.0502483 -0.0291957 0 
0.0449865 -0.0338609 0 
0.0416018 -0.0370895 0 
0.0362001 -0.0416132 0 
0.0318123 -0.0449186 0 