# vtk DataFile Version 3.0
Autogenerated from march.txt by weatherdisplay
ASCII
DATASET STRUCTURED_GRID
DIMENSIONS 10 12 31
POINTS 3720 float
-89.3 37 0 
-89.2111 37 0 
-89.1222 37 0 
-89.0333 37 0 
-88.9444 37 0 
-88.8556 37 0 
-88.7667 37 0 
-88.6778 37 0 
-88.5889 37 0 
-88.5 37 0 
-89.5 37.5 0 
-89.3408 37.5 0 
-89.1816 37.5 0 
-89.0223 37.5 0 
-88.8631 37.5 0 
-88.7039 37.5 0 
-88.5447 37.5 0 
-88.3854 37.5 0 
-88.2262 37.5 0 
-88.067 37.5 0 
-90.05 38 0 
-89.825 38 0 
-89.6 38 0 
-89.375 38 0 
-89.15 38 0 
-88.925 38 0 
-88.7 38 0 
-88.475 38 0 
-88.25 38 0 
-88.025 38 0 
-90.267 38.5 0 
-89.9799 38.5 0 
-89.6928 38.5 0 
-89.4057 38.5 0 
-89.1186 38.5 0 
-88.8314 38.5 0 
-88.5443 38.5 0 
-88.2572 38.5 0 
-87.9701 38.5 0 
-87.683 38.5 0 
-90.683 39 0 
-90.3386 39 0 
-89.9941 39 0 
-89.6497 39 0 
-89.3052 39 0 
-88.9608 39 0 
-88.6163 39 0 
-88.2719 39 0 
-87.9274 39 0 
-87.583 39 0 
-91.067 39.5 0 
-90.6743 39.5 0 
-90.2817 39.5 0 
-89.889 39.5 0 
-89.4963 39.5 0 
-89.1037 39.5 0 
-88.711 39.5 0 
-88.3183 39.5 0 
-87.9257 39.5 0 
-87.533 39.5 0 
-91.467 40 0 
-91.0299 40 0 
-90.5928 40 0 
-90.1557 40 0 
-89.7186 40 0 
-89.2814 40 0 
-88.8443 40 0 
-88.4072 40 0 
-87.9701 40 0 
-87.533 40 0 
-91.367 40.5 0 
-90.9401 40.5 0 
-90.5132 40.5 0 
-90.0863 40.5 0 
-89.6594 40.5 0 
-89.2326 40.5 0 
-88.8057 40.5 0 
-88.3788 40.5 0 
-87.9519 40.5 0 
-87.525 40.5 0 
-90.933 41 0 
-90.5543 41 0 
-90.1757 41 0 
-89.797 41 0 
-89.4183 41 0 
-89.0397 41 0 
-88.661 41 0 
-88.2823 41 0 
-87.9037 41 0 
-87.525 41 0 
-91.125 41.5 0 
-90.725 41.5 0 
-90.325 41.5 0 
-89.925 41.5 0 
-89.525 41.5 0 
-89.125 41.5 0 
-88.725 41.5 0 
-88.325 41.5 0 
-87.925 41.5 0 
-87.525 41.5 0 
-90.142 42 0 
-89.8651 42 0 
-89.5882 42 0 
-89.3113 42 0 
-89.0344 42 0 
-88.7576 42 0 
-88.4807 42 0 
-88.2038 42 0 
-87.9269 42 0 
-87.65 42 0 
-90.65 42.508 0 
-90.3333 42.508 0 
-90.0167 42.508 0 
-89.7 42.508 0 
-89.3833 42.508 0 
-89.0667 42.508 0 
-88.75 42.508 0 
-88.4333 42.508 0 
-88.1167 42.508 0 
-87.8 42.508 0 
-89.3 37 0 
-89.2111 37 0 
-89.1222 37 0 
-89.0333 37 0 
-88.9444 37 0 
-88.8556 37 0 
-88.7667 37 0 
-88.6778 37 0 
-88.5889 37 0 
-88.5 37 0 
-89.5 37.5 0 
-89.3408 37.5 0 
-89.1816 37.5 0 
-89.0223 37.5 0 
-88.8631 37.5 0 
-88.7039 37.5 0 
-88.5447 37.5 0 
-88.3854 37.5 0 
-88.2262 37.5 0 
-88.067 37.5 0 
-90.05 38 0 
-89.825 38 0 
-89.6 38 0 
-89.375 38 0 
-89.15 38 0 
-88.925 38 0 
-88.7 38 0 
-88.475 38 0 
-88.25 38 0 
-88.025 38 0 
-90.267 38.5 0 
-89.9799 38.5 0 
-89.6928 38.5 0 
-89.4057 38.5 0 
-89.1186 38.5 0 
-88.8314 38.5 0 
-88.5443 38.5 0 
-88.2572 38.5 0 
-87.9701 38.5 0 
-87.683 38.5 0 
-90.683 39 0 
-90.3386 39 0 
-89.9941 39 0 
-89.6497 39 0 
-89.3052 39 0 
-88.9608 39 0 
-88.6163 39 0 
-88.2719 39 0 
-87.9274 39 0 
-87.583 39 0 
-91.067 39.5 0 
-90.6743 39.5 0 
-90.2817 39.5 0 
-89.889 39.5 0 
-89.4963 39.5 0 
-89.1037 39.5 0 
-88.711 39.5 0 
-88.3183 39.5 0 
-87.9257 39.5 0 
-87.533 39.5 0 
-91.467 40 0 
-91.0299 40 0 
-90.5928 40 0 
-90.1557 40 0 
-89.7186 40 0 
-89.2814 40 0 
-88.8443 40 0 
-88.4072 40 0 
-87.9701 40 0 
-87.533 40 0 
-91.367 40.5 0 
-90.9401 40.5 0 
-90.5132 40.5 0 
-90.0863 40.5 0 
-89.6594 40.5 0 
-89.2326 40.5 0 
-88.8057 40.5 0 
-88.3788 40.5 0 
-87.9519 40.5 0 
-87.525 40.5 0 
-90.933 41 0 
-90.5543 41 0 
-90.1757 41 0 
-89.797 41 0 
-89.4183 41 0 
-89.0397 41 0 
-88.661 41 0 
-88.2823 41 0 
-87.9037 41 0 
-87.525 41 0 
-91.125 41.5 0 
-90.725 41.5 0 
-90.325 41.5 0 
-89.925 41.5 0 
-89.525 41.5 0 
-89.125 41.5 0 
-88.725 41.5 0 
-88.325 41.5 0 
-87.925 41.5 0 
-87.525 41.5 0 
-90.142 42 0 
-89.8651 42 0 
-89.5882 42 0 
-89.3113 42 0 
-89.0344 42 0 
-88.7576 42 0 
-88.4807 42 0 
-88.2038 42 0 
-87.9269 42 0 
-87.65 42 0 
-90.65 42.508 0 
-90.3333 42.508 0 
-90.0167 42.508 0 
-89.7 42.508 0 
-89.3833 42.508 0 
-89.0667 42.508 0 
-88.75 42.508 0 
-88.4333 42.508 0 
-88.1167 42.508 0 
-87.8 42.508 0 
-89.3 37 0 
-89.2111 37 0 
-89.1222 37 0 
-89.0333 37 0 
-88.9444 37 0 
-88.8556 37 0 
-88.7667 37 0 
-88.6778 37 0 
-88.5889 37 0 
-88.5 37 0 
-89.5 37.5 0 
-89.3408 37.5 0 
-89.1816 37.5 0 
-89.0223 37.5 0 
-88.8631 37.5 0 
-88.7039 37.5 0 
-88.5447 37.5 0 
-88.3854 37.5 0 
-88.2262 37.5 0 
-88.067 37.5 0 
-90.05 38 0 
-89.825 38 0 
-89.6 38 0 
-89.375 38 0 
-89.15 38 0 
-88.925 38 0 
-88.7 38 0 
-88.475 38 0 
-88.25 38 0 
-88.025 38 0 
-90.267 38.5 0 
-89.9799 38.5 0 
-89.6928 38.5 0 
-89.4057 38.5 0 
-89.1186 38.5 0 
-88.8314 38.5 0 
-88.5443 38.5 0 
-88.2572 38.5 0 
-87.9701 38.5 0 
-87.683 38.5 0 
-90.683 39 0 
-90.3386 39 0 
-89.9941 39 0 
-89.6497 39 0 
-89.3052 39 0 
-88.9608 39 0 
-88.6163 39 0 
-88.2719 39 0 
-87.9274 39 0 
-87.583 39 0 
-91.067 39.5 0 
-90.6743 39.5 0 
-90.2817 39.5 0 
-89.889 39.5 0 
-89.4963 39.5 0 
-89.1037 39.5 0 
-88.711 39.5 0 
-88.3183 39.5 0 
-87.9257 39.5 0 
-87.533 39.5 0 
-91.467 40 0 
-91.0299 40 0 
-90.5928 40 0 
-90.1557 40 0 
-89.7186 40 0 
-89.2814 40 0 
-88.8443 40 0 
-88.4072 40 0 
-87.9701 40 0 
-87.533 40 0 
-91.367 40.5 0 
-90.9401 40.5 0 
-90.5132 40.5 0 
-90.0863 40.5 0 
-89.6594 40.5 0 
-89.2326 40.5 0 
-88.8057 40.5 0 
-88.3788 40.5 0 
-87.9519 40.5 0 
-87.525 40.5 0 
-90.933 41 0 
-90.5543 41 0 
-90.1757 41 0 
-89.797 41 0 
-89.4183 41 0 
-89.0397 41 0 
-88.661 41 0 
-88.2823 41 0 
-87.9037 41 0 
-87.525 41 0 
-91.125 41.5 0 
-90.725 41.5 0 
-90.325 41.5 0 
-89.925 41.5 0 
-89.525 41.5 0 
-89.125 41.5 0 
-88.725 41.5 0 
-88.325 41.5 0 
-87.925 41.5 0 
-87.525 41.5 0 
-90.142 42 0 
-89.8651 42 0 
-89.5882 42 0 
-89.3113 42 0 
-89.0344 42 0 
-88.7576 42 0 
-88.4807 42 0 
-88.2038 42 0 
-87.9269 42 0 
-87.65 42 0 
-90.65 42.508 0 
-90.3333 42.508 0 
-90.0167 42.508 0 
-89.7 42.508 0 
-89.3833 42.508 0 
-89.0667 42.508 0 
-88.75 42.508 0 
-88.4333 42.508 0 
-88.1167 42.508 0 
-87.8 42.508 0 
-89.3 37 0 
-89.2111 37 0 
-89.1222 37 0 
-89.0333 37 0 
-88.9444 37 0 
-88.8556 37 0 
-88.7667 37 0 
-88.6778 37 0 
-88.5889 37 0 
-88.5 37 0 
-89.5 37.5 0 
-89.3408 37.5 0 
-89.1816 37.5 0 
-89.0223 37.5 0 
-88.8631 37.5 0 
-88.7039 37.5 0 
-88.5447 37.5 0 
-88.3854 37.5 0 
-88.2262 37.5 0 
-88.067 37.5 0 
-90.05 38 0 
-89.825 38 0 
-89.6 38 0 
-89.375 38 0 
-89.15 38 0 
-88.925 38 0 
-88.7 38 0 
-88.475 38 0 
-88.25 38 0 
-88.025 38 0 
-90.267 38.5 0 
-89.9799 38.5 0 
-89.6928 38.5 0 
-89.4057 38.5 0 
-89.1186 38.5 0 
-88.8314 38.5 0 
-88.5443 38.5 0 
-88.2572 38.5 0 
-87.9701 38.5 0 
-87.683 38.5 0 
-90.683 39 0 
-90.3386 39 0 
-89.9941 39 0 
-89.6497 39 0 
-89.3052 39 0 
-88.9608 39 0 
-88.6163 39 0 
-88.2719 39 0 
-87.9274 39 0 
-87.583 39 0 
-91.067 39.5 0 
-90.6743 39.5 0 
-90.2817 39.5 0 
-89.889 39.5 0 
-89.4963 39.5 0 
-89.1037 39.5 0 
-88.711 39.5 0 
-88.3183 39.5 0 
-87.9257 39.5 0 
-87.533 39.5 0 
-91.467 40 0 
-91.0299 40 0 
-90.5928 40 0 
-90.1557 40 0 
-89.7186 40 0 
-89.2814 40 0 
-88.8443 40 0 
-88.4072 40 0 
-87.9701 40 0 
-87.533 40 0 
-91.367 40.5 0 
-90.9401 40.5 0 
-90.5132 40.5 0 
-90.0863 40.5 0 
-89.6594 40.5 0 
-89.2326 40.5 0 
-88.8057 40.5 0 
-88.3788 40.5 0 
-87.9519 40.5 0 
-87.525 40.5 0 
-90.933 41 0 
-90.5543 41 0 
-90.1757 41 0 
-89.797 41 0 
-89.4183 41 0 
-89.0397 41 0 
-88.661 41 0 
-88.2823 41 0 
-87.9037 41 0 
-87.525 41 0 
-91.125 41.5 0 
-90.725 41.5 0 
-90.325 41.5 0 
-89.925 41.5 0 
-89.525 41.5 0 
-89.125 41.5 0 
-88.725 41.5 0 
-88.325 41.5 0 
-87.925 41.5 0 
-87.525 41.5 0 
-90.142 42 0 
-89.8651 42 0 
-89.5882 42 0 
-89.3113 42 0 
-89.0344 42 0 
-88.7576 42 0 
-88.4807 42 0 
-88.2038 42 0 
-87.9269 42 0 
-87.65 42 0 
-90.65 42.508 0 
-90.3333 42.508 0 
-90.0167 42.508 0 
-89.7 42.508 0 
-89.3833 42.508 0 
-89.0667 42.508 0 
-88.75 42.508 0 
-88.4333 42.508 0 
-88.1167 42.508 0 
-87.8 42.508 0 
-89.3 37 0 
-89.2111 37 0 
-89.1222 37 0 
-89.0333 37 0 
-88.9444 37 0 
-88.8556 37 0 
-88.7667 37 0 
-88.6778 37 0 
-88.5889 37 0 
-88.5 37 0 
-89.5 37.5 0 
-89.3408 37.5 0 
-89.1816 37.5 0 
-89.0223 37.5 0 
-88.8631 37.5 0 
-88.7039 37.5 0 
-88.5447 37.5 0 
-88.3854 37.5 0 
-88.2262 37.5 0 
-88.067 37.5 0 
-90.05 38 0 
-89.825 38 0 
-89.6 38 0 
-89.375 38 0 
-89.15 38 0 
-88.925 38 0 
-88.7 38 0 
-88.475 38 0 
-88.25 38 0 
-88.025 38 0 
-90.267 38.5 0 
-89.9799 38.5 0 
-89.6928 38.5 0 
-89.4057 38.5 0 
-89.1186 38.5 0 
-88.8314 38.5 0 
-88.5443 38.5 0 
-88.2572 38.5 0 
-87.9701 38.5 0 
-87.683 38.5 0 
-90.683 39 0 
-90.3386 39 0 
-89.9941 39 0 
-89.6497 39 0 
-89.3052 39 0 
-88.9608 39 0 
-88.6163 39 0 
-88.2719 39 0 
-87.9274 39 0 
-87.583 39 0 
-91.067 39.5 0 
-90.6743 39.5 0 
-90.2817 39.5 0 
-89.889 39.5 0 
-89.4963 39.5 0 
-89.1037 39.5 0 
-88.711 39.5 0 
-88.3183 39.5 0 
-87.9257 39.5 0 
-87.533 39.5 0 
-91.467 40 0 
-91.0299 40 0 
-90.5928 40 0 
-90.1557 40 0 
-89.7186 40 0 
-89.2814 40 0 
-88.8443 40 0 
-88.4072 40 0 
-87.9701 40 0 
-87.533 40 0 
-91.367 40.5 0 
-90.9401 40.5 0 
-90.5132 40.5 0 
-90.0863 40.5 0 
-89.6594 40.5 0 
-89.2326 40.5 0 
-88.8057 40.5 0 
-88.3788 40.5 0 
-87.9519 40.5 0 
-87.525 40.5 0 
-90.933 41 0 
-90.5543 41 0 
-90.1757 41 0 
-89.797 41 0 
-89.4183 41 0 
-89.0397 41 0 
-88.661 41 0 
-88.2823 41 0 
-87.9037 41 0 
-87.525 41 0 
-91.125 41.5 0 
-90.725 41.5 0 
-90.325 41.5 0 
-89.925 41.5 0 
-89.525 41.5 0 
-89.125 41.5 0 
-88.725 41.5 0 
-88.325 41.5 0 
-87.925 41.5 0 
-87.525 41.5 0 
-90.142 42 0 
-89.8651 42 0 
-89.5882 42 0 
-89.3113 42 0 
-89.0344 42 0 
-88.7576 42 0 
-88.4807 42 0 
-88.2038 42 0 
-87.9269 42 0 
-87.65 42 0 
-90.65 42.508 0 
-90.3333 42.508 0 
-90.0167 42.508 0 
-89.7 42.508 0 
-89.3833 42.508 0 
-89.0667 42.508 0 
-88.75 42.508 0 
-88.4333 42.508 0 
-88.1167 42.508 0 
-87.8 42.508 0 
-89.3 37 0 
-89.2111 37 0 
-89.1222 37 0 
-89.0333 37 0 
-88.9444 37 0 
-88.8556 37 0 
-88.7667 37 0 
-88.6778 37 0 
-88.5889 37 0 
-88.5 37 0 
-89.5 37.5 0 
-89.3408 37.5 0 
-89.1816 37.5 0 
-89.0223 37.5 0 
-88.8631 37.5 0 
-88.7039 37.5 0 
-88.5447 37.5 0 
-88.3854 37.5 0 
-88.2262 37.5 0 
-88.067 37.5 0 
-90.05 38 0 
-89.825 38 0 
-89.6 38 0 
-89.375 38 0 
-89.15 38 0 
-88.925 38 0 
-88.7 38 0 
-88.475 38 0 
-88.25 38 0 
-88.025 38 0 
-90.267 38.5 0 
-89.9799 38.5 0 
[...]
POINT_DATA 3720
VECTORS WindVector float
0.0122377 -0.0245671 0 
0.0126111 -0.0229582 0 
0.0131349 -0.0210889 0 
0.0137885 -0.0189987 0 
0.0145159 -0.0168214 0 
0.0152243 -0.0147937 0 
0.0158015 -0.0132114 0 
0.0161534 -0.0123323 0 
0.0162399 -0.0122738 0 
0.0160867 -0.0129768 0 
0.00884898 -0.0294918 0 
0.00812528 -0.0289068 0 
0.00836199 -0.0273903 0 
0.0110618 -0.0202282 0 
0.0173064 -0.00532751 0 
0.0231222 0.00787143 0 
0.0209183 0.00271108 0 
0.016927 -0.00733613 0 
0.0141625 -0.0153585 0 
0.0127337 -0.0206966 0 
0.0136031 -0.0379497 0 
0.0121806 -0.0364316 0 
0.00964251 -0.0337599 0 
0.00635906 -0.0312714 0 
0.000727725 -0.0295902 0 
-0.00754114 -0.0286906 0 
-0.000687511 -0.0274199 0 
0.00449267 -0.0274988 0 
0.00587967 -0.0287015 0 
0.00738967 -0.0296141 0 
0.0159381 -0.0418872 0 
0.0162291 -0.0440408 0 
0.0154431 -0.04246 0 
0.0116284 -0.0368462 0 
0.00761454 -0.033829 0 
0.00536239 -0.0328225 0 
0.00284943 -0.0328221 0 
0.00229118 -0.0324684 0 
0.0053834 -0.0317974 0 
0.00846249 -0.0332529 0 
0.0182 -0.0437383 0 
0.0174127 -0.0426576 0 
0.0170025 -0.0418998 0 
0.0169281 -0.0405997 0 
0.0175312 -0.0381881 0 
0.0212101 -0.0358643 0 
0.0152378 -0.0365525 0 
0.00960456 -0.0345663 0 
0.009087 -0.0342661 0 
0.0127842 -0.0369933 0 
0.0210029 -0.0483549 0 
0.0204077 -0.0477483 0 
0.0177609 -0.0438392 0 
0.0193791 -0.0421366 0 
0.0211342 -0.041861 0 
0.0204146 -0.0420907 0 
0.0214734 -0.0439753 0 
0.0224739 -0.0457242 0 
0.0213278 -0.0444559 0 
0.0203962 -0.0436064 0 
0.0210788 -0.0486246 0 
0.0216153 -0.0497938 0 
0.0188833 -0.0475404 0 
0.00524282 -0.0388125 0 
0.0173167 -0.0420518 0 
0.0225044 -0.0446972 0 
0.0264393 -0.0501585 0 
0.0351619 -0.0675454 0 
0.0282572 -0.0484108 0 
0.0257359 -0.0486399 0 
0.0219871 -0.0515549 0 
0.0219592 -0.054041 0 
0.018996 -0.0500003 0 
0.0150264 -0.0426762 0 
0.0258165 -0.0445931 0 
0.028596 -0.0474682 0 
0.0286662 -0.0520245 0 
0.0307898 -0.0562717 0 
0.0307286 -0.0565191 0 
0.0288978 -0.0536859 0 
0.0247511 -0.0632141 0 
0.0246935 -0.062734 0 
0.0233329 -0.0491029 0 
0.0245373 -0.0446779 0 
0.0296952 -0.0474297 0 
0.0302404 -0.0510829 0 
0.0325428 -0.0582481 0 
0.0375543 -0.0756618 0 
0.0356563 -0.0693674 0 
0.0317602 -0.0581624 0 
0.0247009 -0.054067 0 
0.0252957 -0.0546495 0 
0.0264038 -0.051472 0 
0.0283639 -0.0492433 0 
0.0307431 -0.0503759 0 
0.0340507 -0.055074 0 
0.0365544 -0.0570728 0 
0.0377396 -0.0551147 0 
0.0358121 -0.0569507 0 
0.0331192 -0.0553385 0 
0.0327895 -0.0490833 0 
0.0362964 -0.0482779 0 
0.0374446 -0.048679 0 
0.0364399 -0.0529508 0 
0.0378515 -0.0600781 0 
0.0389058 -0.0608931 0 
0.0427141 -0.0478467 0 
0.0423376 -0.0473674 0 
0.0382602 -0.0506508 0 
0.0351939 -0.0520367 0 
0.0299633 -0.0493937 0 
0.0326921 -0.0489374 0 
0.036422 -0.0480795 0 
0.0391167 -0.0472863 0 
0.037609 -0.0490304 0 
0.0362193 -0.0521414 0 
0.0365625 -0.0529441 0 
0.0371237 -0.0517117 0 
0.0365999 -0.0510232 0 
0.035004 -0.0510919 0 
0.0689005 0.0819379 0 
0.067575 0.0820715 0 
0.0661068 0.082307 0 
0.0645103 0.0826378 0 
0.0628694 0.0830338 0 
0.0613516 0.0834357 0 
0.0601789 0.083764 0 
0.0595527 0.0839456 0 
0.0595694 0.0839432 0 
0.0601855 0.0837686 0 
0.0707723 0.0807323 0 
0.0684602 0.0804116 0 
0.0670518 0.0803913 0 
0.0633223 0.0811459 0 
0.0534145 0.0847996 0 
0.0434592 0.0891046 0 
0.0476356 0.0873363 0 
0.0559426 0.0841027 0 
0.0626241 0.0818134 0 
0.0669851 0.0805214 0 
0.0898024 0.0900676 0 
0.0870063 0.0880867 0 
0.0807602 0.0831678 0 
0.0747245 0.077685 0 
0.0724754 0.0690332 0 
0.0721911 0.0568217 0 
0.072614 0.0663261 0 
0.0746257 0.0748849 0 
0.0759265 0.076621 0 
0.0755475 0.0758538 0 
0.0984868 0.0958738 0 
0.108926 0.106951 0 
0.104088 0.101951 0 
0.0893759 0.0857246 0 
0.0840962 0.0774145 0 
0.0822426 0.0747743 0 
0.0825499 0.0777117 0 
0.0801589 0.0731405 0 
0.0728167 0.0598919 0 
0.0745276 0.0673171 0 
0.0901627 0.0808565 0 
0.0924507 0.0851732 0 
0.0947048 0.0888631 0 
0.0933584 0.0876994 0 
0.0939704 0.0881182 0 
0.104535 0.0964624 0 
0.0894595 0.0836351 0 
0.0763333 0.0657872 0 
0.073311 0.0619861 0 
0.075981 0.0727173 0 
0.08753 0.0671394 0 
0.0876129 0.0670762 0 
0.0903048 0.0760304 0 
0.0911596 0.076666 0 
0.0913186 0.0758748 0 
0.0902421 0.0853308 0 
0.0888841 0.0893013 0 
0.0854564 0.0889255 0 
0.0807399 0.0858678 0 
0.078426 0.0858963 0 
0.0924961 0.0764425 0 
0.0885585 0.0647738 0 
0.0898061 0.0675024 0 
0.0932905 0.0693977 0 
0.0908368 0.0753473 0 
0.088651 0.0827161 0 
0.0898891 0.0950977 0 
0.125538 0.126418 0 
0.0756515 0.0879269 0 
0.0767677 0.0941339 0 
0.10381 0.0861253 0 
0.113442 0.0889111 0 
0.106587 0.0849432 0 
0.0913983 0.0758341 0 
0.0871316 0.0771421 0 
0.0871893 0.0846698 0 
0.0816749 0.0988421 0 
0.0764766 0.107012 0 
0.0696903 0.108657 0 
0.07073 0.105738 0 
0.142975 0.10476 0 
0.141655 0.104226 0 
0.0973573 0.0872297 0 
0.0840741 0.0796217 0 
0.0851329 0.0844846 0 
0.0764202 0.0983559 0 
0.064849 0.116736 0 
0.0456335 0.149616 0 
0.0517609 0.138386 0 
0.0626532 0.118251 0 
0.107856 0.0968314 0 
0.108794 0.098064 0 
0.0941602 0.0963716 0 
0.0800205 0.0965231 0 
0.0717349 0.101758 0 
0.0612516 0.11515 0 
0.0531861 0.124873 0 
0.0491353 0.128582 0 
0.0531818 0.126455 0 
0.059364 0.11911 0 
0.066792 0.106441 0 
0.0555247 0.111774 0 
0.0518199 0.114411 0 
0.0540446 0.118105 0 
0.0495064 0.129099 0 
0.0465187 0.132874 0 
0.0368781 0.134605 0 
0.0377489 0.133594 0 
0.0476312 0.126462 0 
0.0547432 0.120707 0 
0.0742512 0.102894 0 
0.0657614 0.106978 0 
0.0547013 0.112306 0 
0.0470399 0.115918 0 
0.0508149 0.115862 0 
0.0539834 0.118379 0 
0.0526722 0.121716 0 
0.0509088 0.123276 0 
0.0518697 0.122235 0 
0.0553825 0.1191 0 
-0.00770026 -0.0690626 0 
-0.00712736 -0.0671549 0 
-0.00647586 -0.0650325 0 
-0.00575255 -0.0627318 0 
-0.00499768 -0.0603864 0 
-0.00429185 -0.0582372 0 
-0.00374242 -0.0565885 0 
-0.00344706 -0.0557085 0 
-0.00345319 -0.0557228 0 
-0.00374119 -0.0565744 0 
-0.0087378 -0.0728386 0 
-0.00778903 -0.0712746 0 
-0.00721195 -0.0693274 0 
-0.00558798 -0.0617451 0 
-0.000784335 -0.0469266 0 
0.00420239 -0.0342257 0 
0.00214634 -0.0392743 0 
-0.00182928 -0.0494859 0 
-0.00492547 -0.0581644 0 
-0.00691782 -0.0644198 0 
-0.0166734 -0.0922834 0 
-0.0156816 -0.0883397 0 
-0.0131523 -0.0806548 0 
-0.0112768 -0.0725897 0 
-0.0128245 -0.0632283 0 
-0.016802 -0.0519868 0 
-0.0133768 -0.0585623 0 
-0.0108216 -0.0656764 0 
-0.0104263 -0.0695749 0 
-0.010327 -0.0726454 0 
-0.020376 -0.102017 0 
-0.0278883 -0.110988 0 
-0.0244691 -0.105625 0 
-0.0140226 -0.0867671 0 
-0.0105949 -0.075861 0 
-0.0105262 -0.0724647 0 
-0.0114433 -0.0728364 0 
-0.0110894 -0.0731772 0 
-0.00935741 -0.0763513 0 
-0.0107544 -0.0804206 0 
-0.0128735 -0.098887 0 
-0.0136059 -0.0984396 0 
-0.0142671 -0.0982567 0 
-0.0113486 -0.0948742 0 
-0.00481358 -0.0900011 0 
0.00718139 -0.087349 0 
-0.00579381 -0.0873139 0 
-0.0104527 -0.083485 0 
-0.01106 -0.0834657 0 
-0.0137788 -0.0898853 0 
-0.0126536 -0.102367 0 
-0.0120764 -0.101289 0 
-0.00881507 -0.0963647 0 
-0.00133501 -0.0901202 0 
0.00271322 -0.0873264 0 
-0.00874222 -0.0973966 0 
-0.0184606 -0.106286 0 
-0.0261256 -0.112843 0 
-0.0241971 -0.109686 0 
-0.021107 -0.106684 0 
-0.0128924 -0.104258 0 
-0.0129753 -0.103599 0 
-0.0114292 -0.100492 0 
-0.00636573 -0.0854693 0 
-0.00287058 -0.0920209 0 
-0.00900647 -0.102209 0 
-0.0285377 -0.122311 0 
-0.0738806 -0.171549 0 
-0.0339049 -0.123478 0 
-0.0264867 -0.119316 0 
-0.0145009 -0.108262 0 
-0.0159343 -0.109656 0 
-0.0127614 -0.104948 0 
-0.0062418 -0.0974326 0 
-0.00642733 -0.108903 0 
-0.0132345 -0.11538 0 
-0.0242404 -0.125514 0 
-0.0336217 -0.135727 0 
-0.0303527 -0.134391 0 
-0.0255571 -0.127948 0 
-0.0223034 -0.118342 0 
-0.0217658 -0.118102 0 
-0.00963966 -0.110056 0 
-0.00384238 -0.10841 0 
-0.0102871 -0.116606 0 
-0.0140655 -0.123468 0 
-0.0200421 -0.135756 0 
-0.0299567 -0.161979 0 
-0.027171 -0.152473 0 
-0.0220561 -0.134898 0 
-0.0152292 -0.115012 0 
-0.0151322 -0.116416 0 
-0.0117268 -0.117359 0 
-0.00892155 -0.120112 0 
-0.00927554 -0.125392 0 
-0.0113798 -0.135805 0 
-0.0105942 -0.139747 0 
-0.00708061 -0.133588 0 
-0.012431 -0.134894 0 
-0.0149982 -0.131306 0 
-0.00629837 -0.130503 0 
-0.00328892 -0.138111 0 
-0.00287124 -0.140883 0 
-0.00713728 -0.140655 0 
-0.011874 -0.149702 0 
-0.0111145 -0.150644 0 
0.00890654 -0.123713 0 
0.00883985 -0.122262 0 
-0.00100971 -0.12662 0 
-0.00724024 -0.127598 0 
-0.00875298 -0.12434 0 
-0.00647902 -0.130171 0 
-0.00312011 -0.138266 0 
-0.000508447 -0.144168 0 
-0.0030165 -0.140871 0 
-0.00628843 -0.13725 0 
-0.00591028 -0.134644 0 
-0.00355359 -0.130484 0 
-0.00354181 -0.127939 0 
-0.00597188 -0.126817 0 
0.00440786 -0.0777909 0 
0.00485739 -0.0767901 0 
0.0052731 -0.0751821 0 
0.005671 -0.0731176 0 
0.00605127 -0.0708426 0 
0.00638585 -0.0686532 0 
0.00661981 -0.0668208 0 
0.00669179 -0.065513 0 
0.00656339 -0.0647515 0 
0.00623718 -0.0644333 0 
0.00703553 -0.100869 0 
0.0093635 -0.109853 0 
0.00989687 -0.109192 0 
0.00895253 -0.091114 0 
0.00968439 -0.0671351 0 
0.0118171 -0.0533035 0 
0.0106189 -0.0570194 0 
0.00800284 -0.0631037 0 
0.00567496 -0.0669589 0 
0.00395175 -0.0686076 0 
-0.00594522 -0.0822399 0 
-0.00347887 -0.08719 0 
0.000884348 -0.0906819 0 
0.00491291 -0.0948812 0 
0.00508381 -0.0866967 0 
0.00313088 -0.0712328 0 
0.00343359 -0.0752329 0 
0.00293088 -0.0812599 0 
0.00227817 -0.0833545 0 
0.00189136 -0.0808223 0 
-0.0113084 -0.082307 0 
-0.0147534 -0.115242 0 
-0.0118422 -0.106113 0 
-0.00114905 -0.0833412 0 
0.0045244 -0.079706 0 
0.00494796 -0.0816377 0 
0.00182838 -0.0941738 0 
0.00153494 -0.0978024 0 
0.00314833 -0.09131 0 
0.00151224 -0.0813043 0 
-0.0146912 -0.0116606 0 
-0.0121583 -0.0365657 0 
-0.00946602 -0.0596026 0 
-0.00453857 -0.0664704 0 
0.00700793 -0.0773602 0 
0.0260692 -0.104558 0 
0.00966441 -0.0848181 0 
0.00359721 -0.0850003 0 
0.00260735 -0.0842116 0 
-0.000332644 -0.0716754 0 
-0.0213164 0.0490466 0 
-0.0204411 0.0446531 0 
-0.0151938 0.00478139 0 
-0.00536144 -0.0383297 0 
0.000545988 -0.0597561 0 
-0.000818962 -0.0555551 0 
0.00112033 -0.0649796 0 
0.00164323 -0.0704163 0 
-0.000185217 -0.0654856 0 
-0.00378394 -0.0560511 0 
-0.0239839 0.047725 0 
-0.0236669 0.0647608 0 
-0.0228626 0.0564763 0 
-0.0188133 0.0458176 0 
-0.013647 -0.00465229 0 
-0.0139398 -0.0187193 0 
-0.00661857 -0.0482349 0 
0.00859963 -0.126144 0 
0.00563031 -0.0699129 0 
-0.00780887 -0.0433649 0 
-0.03043 0.0642057 0 
-0.0352223 0.0814469 0 
-0.0329362 0.0709931 0 
-0.0306979 0.0540366 0 
-0.04579 0.0583709 0 
-0.0392623 0.038234 0 
-0.0227499 -0.00551892 0 
-0.0188581 -0.0262872 0 
-0.0245365 -0.0134722 0 
-0.0232408 -0.0101189 0 
-0.048722 0.125786 0 
-0.0488517 0.124838 0 
-0.0385605 0.0699608 0 
-0.0435896 0.0622522 0 
-0.0460875 0.0603059 0 
-0.0373895 0.0475779 0 
-0.0435215 0.0459054 0 
-0.0848647 0.0852162 0 
-0.0685913 0.0649128 0 
-0.040496 0.0288317 0 
-0.0350849 0.0790631 0 
-0.0367121 0.0852094 0 
-0.0334472 0.074379 0 
-0.0312984 0.0676608 0 
-0.0310986 0.0695571 0 
-0.0307571 0.0839919 0 
-0.0337872 0.0904234 0 
-0.0436893 0.0748354 0 
-0.0456732 0.0615538 0 
-0.0388306 0.0439938 0 
-0.0198899 0.0804614 0 
-0.0134204 0.0918144 0 
-0.0123737 0.0960657 0 
-0.0208236 0.0961989 0 
-0.0259885 0.117421 0 
-0.0279621 0.122377 0 
-0.0418344 0.0890943 0 
-0.0424739 0.0841663 0 
-0.038825 0.0717726 0 
-0.0361092 0.0581578 0 
-0.0227631 0.0671023 0 
-0.0188472 0.0765184 0 
-0.0122788 0.0906683 0 
-0.00686094 0.101658 0 
-0.0129703 0.095 0 
-0.0227886 0.0886178 0 
-0.02877 0.0856942 0 
-0.0326982 0.0794689 0 
-0.0339261 0.0715856 0 
-0.0330767 0.0618446 0 
0.0339122 0.101047 0 
0.0343187 0.100401 0 
0.0345105 0.0998171 0 
0.0345518 0.099278 0 
0.0345069 0.098785 0 
0.0344062 0.0983761 0 
0.0342256 0.0981257 0 
0.0338986 0.0981199 0 
0.0333551 0.0984181 0 
0.0325618 0.0990252 0 
0.0447328 0.0971894 0 
0.0508706 0.0940845 0 
0.0516262 0.0931764 0 
0.0454899 0.0937032 0 
0.0401479 0.092906 0 
0.0396898 0.0908463 0 
0.0386208 0.092341 0 
0.035285 0.0962753 0 
0.0313948 0.100457 0 
0.0278485 0.103935 0 
0.0213442 0.116448 0 
0.0257205 0.112884 0 
0.0326019 0.105686 0 
0.0409176 0.0971224 0 
0.0442824 0.0875894 0 
0.0462341 0.0752262 0 
0.0393212 0.0885284 0 
0.0323921 0.103155 0 
0.0286665 0.10897 0 
0.0246958 0.110784 0 
0.0156445 0.123785 0 
0.0237076 0.128936 0 
0.0218301 0.126178 0 
0.0184506 0.116672 0 
0.0205277 0.11075 0 
0.0229911 0.109485 0 
0.0281662 0.115929 0 
0.0281533 0.11615 0 
0.019691 0.112215 0 
0.0150757 0.114522 0 
-0.00124136 0.11863 0 
0.00130926 0.121285 0 
0.00364122 0.123974 0 
0.00134673 0.125842 0 
-0.00277618 0.133711 0 
-0.0108243 0.154794 0 
0.000433352 0.132152 0 
0.00978313 0.117704 0 
0.0102869 0.115468 0 
0.00394204 0.119621 0 
-0.00613297 0.109925 0 
-0.00661992 0.109702 0 
-0.0100897 0.117364 0 
-0.0199868 0.124809 0 
-0.0258725 0.128964 0 
-0.0158917 0.1318 0 
-0.0182456 0.133879 0 
-0.0226638 0.132195 0 
-0.0190733 0.128889 0 
-0.0148433 0.128286 0 
-0.00819885 0.118861 0 
-0.0069898 0.108749 0 
-0.00860625 0.109544 0 
-0.0112911 0.101275 0 
-0.020814 0.12009 0 
-0.0231964 0.128551 0 
-0.0329288 0.137901 0 
-0.0671038 0.171229 0 
-0.0395901 0.12718 0 
-0.0288961 0.13452 0 
-0.0103237 0.13023 0 
-0.0107126 0.135097 0 
-0.0123444 0.128443 0 
-0.0152989 0.115935 0 
-0.0210874 0.122867 0 
-0.0237143 0.127762 0 
-0.0331151 0.140678 0 
-0.0434702 0.147736 0 
-0.042336 0.148747 0 
-0.0350071 0.145459 0 
-0.0104071 0.157131 0 
-0.0108555 0.156494 0 
-0.0167243 0.132812 0 
-0.0204776 0.127199 0 
-0.0225413 0.128433 0 
-0.0263198 0.140916 0 
-0.037263 0.157787 0 
-0.0593699 0.191111 0 
-0.0524552 0.17877 0 
-0.0390199 0.156884 0 
-0.013117 0.140587 0 
-0.0138486 0.141996 0 
-0.0162275 0.136875 0 
-0.0188217 0.134335 0 
-0.0205839 0.141199 0 
-0.0210748 0.163144 0 
-0.0264244 0.17196 0 
-0.0417715 0.158569 0 
-0.042141 0.158696 0 
-0.0369418 0.153994 0 
-0.0180449 0.128714 0 
-0.0183837 0.123286 0 
-0.0185849 0.125208 0 
-0.01878 0.150422 0 
-0.0148831 0.188576 0 
-0.0165571 0.194572 0 
-0.050205 0.146366 0 
-0.0514776 0.143418 0 
-0.0420831 0.149089 0 
-0.0366437 0.150082 0 
-0.0171594 0.132133 0 
-0.0179568 0.128929 0 
-0.0183063 0.122314 0 
-0.0181801 0.116068 0 
-0.0193028 0.127825 0 
-0.0220018 0.148497 0 
-0.0266594 0.156397 0 
-0.0327017 0.153402 0 
-0.0348412 0.15027 0 
-0.0333458 0.148805 0 
-0.0258145 0.0652485 0 
-0.0244576 0.0664105 0 
-0.0230892 0.0674602 0 
-0.0216926 0.0684403 0 
-0.0203091 0.0693567 0 
-0.0190644 0.0701464 0 
-0.0181539 0.07068 0 
-0.0177743 0.0708089 0 
-0.0180373 0.0704361 0 
-0.0189229 0.0695611 0 
-0.0222232 0.0736749 0 
-0.0174568 0.0792107 0 
-0.0158703 0.0804974 0 
-0.0153232 0.0781858 0 
-0.00950938 0.079201 0 
-0.0017452 0.0833151 0 
-0.00550508 0.0808494 0 
-0.0135294 0.0752222 0 
-0.0206367 0.0698299 0 
-0.0259446 0.0653708 0 
-0.049997 0.053553 0 
-0.0451294 0.0590272 0 
-0.0359933 0.0648729 0 
-0.0264138 0.0716744 0 
-0.0218601 0.0745007 0 
-0.0193177 0.0755724 0 
-0.0225788 0.0731528 0 
-0.0260137 0.0717784 0 
-0.0286345 0.0699767 0 
-0.0319543 0.0655419 0 
-0.0607721 0.0483657 0 
-0.0660113 0.0702119 0 
-0.0621714 0.065509 0 
-0.0482161 0.0574917 0 
-0.0399975 0.0622055 0 
-0.0359982 0.066202 0 
-0.0300304 0.07448 0 
-0.0293465 0.0754364 0 
-0.0358527 0.0654499 0 
-0.0403425 0.0575934 0 
-0.0639343 -0.00478168 0 
-0.0632769 0.0120957 0 
-0.0631078 0.0276334 0 
-0.061504 0.032989 0 
-0.0578262 0.0463829 0 
-0.0578685 0.0714617 0 
-0.052346 0.0563242 0 
-0.0447672 0.056704 0 
-0.0441838 0.0557475 0 
-0.0504012 0.0455536 0 
-0.0705934 -0.0489562 0 
-0.0704577 -0.0466715 0 
-0.0672304 -0.0222491 0 
-0.0725074 -0.00744216 0 
-0.0765107 -0.00130842 0 
-0.0684701 0.0188829 0 
-0.0710618 0.0291082 0 
-0.0752422 0.0305517 0 
-0.0713203 0.0295978 0 
-0.0674292 0.0266491 0 
-0.0684848 -0.0466453 0 
-0.0721618 -0.0601393 0 
-0.0695471 -0.0545442 0 
-0.0593912 -0.0451206 0 
-0.0702883 -0.0256386 0 
-0.0745953 -0.0134087 0 
-0.0856648 0.00899305 0 
-0.127776 0.0437475 0 
-0.0870823 0.0203583 0 
-0.0797379 0.0128682 0 
-0.0680548 -0.0565094 0 
-0.0685813 -0.0677326 0 
-0.0659204 -0.0618977 0 
-0.0603076 -0.0535809 0 
-0.0677402 -0.0592014 0 
-0.0786579 -0.0430097 0 
-0.0854664 -0.0141202 0 
-0.0949469 -0.000178173 0 
-0.0931147 -0.0043366 0 
-0.0857833 -0.00498991 0 
-0.0703872 -0.0941695 0 
-0.070078 -0.0938852 0 
-0.0639674 -0.0638348 0 
-0.0599361 -0.0630883 0 
-0.0752644 -0.0571077 0 
-0.0791771 -0.0450794 0 
-0.0892834 -0.0371938 0 
-0.114805 -0.0437406 0 
-0.105709 -0.0373337 0 
-0.0890497 -0.0247275 0 
-0.067589 -0.0655122 0 
-0.0675647 -0.0698937 0 
-0.0662984 -0.0642693 0 
-0.0662271 -0.0607811 0 
-0.0706612 -0.0599577 0 
-0.079958 -0.0630931 0 
-0.0828573 -0.0653878 0 
-0.0782428 -0.0596406 0 
-0.0828373 -0.0483861 0 
-0.0816998 -0.0372902 0 
-0.0600873 -0.0700831 0 
-0.0552819 -0.0793198 0 
-0.0556411 -0.0816714 0 
-0.0693887 -0.0747306 0 
-0.0867393 -0.0779443 0 
-0.0886175 -0.080192 0 
-0.06154 -0.0792103 0 
-0.0608231 -0.0766694 0 
-0.0692434 -0.0626925 0 
-0.0736062 -0.0506563 0 
-0.0632826 -0.0594057 0 
-0.0602274 -0.0669646 0 
-0.054548 -0.0786157 0 
-0.0495019 -0.0878978 0 
-0.056798 -0.0802215 0 
-0.0685915 -0.0705791 0 
-0.072508 -0.0673954 0 
-0.0708277 -0.0652691 0 
-0.0701411 -0.0608766 0 
-0.0712699 -0.053657 0 
0.0056773 -0.0562975 0 
0.00577684 -0.0551995 0 
0.00595281 -0.0540128 0 
0.00619989 -0.0527442 0 
0.0064954 -0.0514555 0 
0.00679459 -0.0502773 0 
0.007037 -0.0493877 0 
0.00716643 -0.0489535 0 
0.00715481 -0.0490607 0 
0.00701333 -0.049683 0 
0.00377704 -0.0563408 0 
0.00407902 -0.0542947 0 
0.00421635 -0.0531353 0 
0.00469891 -0.0503699 0 
0.00757729 -0.0430451 0 
0.0112333 -0.0356274 0 
0.00956382 -0.0388411 0 
0.00627193 -0.0454702 0 
0.00383855 -0.0511473 0 
0.00264305 -0.0552285 0 
-0.002188 -0.0698811 0 
-0.00259864 -0.0673489 0 
-0.00087293 -0.0627679 0 
-0.000248856 -0.0578999 0 
-0.00435128 -0.0544192 0 
-0.0116615 -0.0512531 0 
-0.00864964 -0.053888 0 
-0.00934693 -0.0572749 0 
-0.0100569 -0.0593661 0 
-0.00720273 -0.0609001 0 
-0.00574459 -0.0751494 0 
-0.0227761 -0.0773839 0 
-0.0169059 -0.0755054 0 
-0.00172151 -0.0684019 0 
-0.000571118 -0.063827 0 
-0.00468265 -0.0622224 0 
-0.0185937 -0.0621098 0 
-0.0214419 -0.061378 0 
-0.0118397 -0.0610514 0 
-0.00476169 -0.0644912 0 
0.0206112 -0.0766468 0 
0.0141385 -0.0761786 0 
0.00799853 -0.0757775 0 
0.00965779 -0.0747724 0 
0.0123251 -0.0730205 0 
0.0141072 -0.0719051 0 
0.00717499 -0.0710852 0 
-0.00289535 -0.0663904 0 
-0.00367979 -0.0657403 0 
0.00433029 -0.0711148 0 
0.0332298 -0.0771437 0 
0.032964 -0.0765425 0 
0.0295288 -0.0768559 0 
0.0304754 -0.0764818 0 
0.031558 -0.0764999 0 
0.0236769 -0.0796704 0 
0.0209486 -0.0850603 0 
0.0206205 -0.0892824 0 
0.019527 -0.0861613 0 
0.0194798 -0.0834552 0 
0.0335252 -0.082255 0 
0.0357792 -0.0780371 0 
0.0358148 -0.077394 0 
0.0359766 -0.0703671 0 
0.0367943 -0.0772318 0 
0.0358295 -0.0836689 0 
0.0316964 -0.0969667 0 
0.0266255 -0.138264 0 
0.0307041 -0.0956451 0 
0.0304532 -0.0919625 0 
0.0348365 -0.0910447 0 
0.0355763 -0.0962047 0 
0.0375865 -0.0902074 0 
0.0428348 -0.0784518 0 
0.0541048 -0.0860953 0 
0.0502229 -0.0921112 0 
0.0420572 -0.0970452 0 
0.0421831 -0.103016 0 
0.0448919 -0.100465 0 
0.041454 -0.0960632 0 
0.0345716 -0.115726 0 
0.0352776 -0.115023 0 
0.044477 -0.0904199 0 
0.0527709 -0.0834788 0 
0.054831 -0.0917962 0 
0.0512945 -0.0939712 0 
0.0557325 -0.0993832 0 
0.0777559 -0.112213 0 
0.0688269 -0.107445 0 
0.0524153 -0.0984277 0 
0.0372247 -0.0984862 0 
0.0384307 -0.0998593 0 
0.041807 -0.094282 0 
0.0458566 -0.0904151 0 
0.0493071 -0.091824 0 
0.0542413 -0.0973391 0 
0.0587865 -0.0989463 0 
0.062698 -0.0947608 0 
0.0604391 -0.0963694 0 
0.0538628 -0.0952052 0 
0.0428064 -0.089772 0 
0.0429274 -0.0884825 0 
0.0438845 -0.088906 0 
0.0500375 -0.0943395 0 
0.0583396 -0.103437 0 
0.0612155 -0.104359 0 
0.0683763 -0.0865061 0 
0.0678683 -0.0857776 0 
0.0611076 -0.0899745 0 
0.0557964 -0.0917525 0 
0.0411549 -0.0900402 0 
0.0420906 -0.0893442 0 
0.0422112 -0.0881116 0 
0.0416607 -0.0870245 0 
0.0445701 -0.0892145 0 
0.0505396 -0.0930467 0 
0.0549796 -0.0938285 0 