# vtk DataFile Version 3.0
Autogenerated from allstations.txt by c:\JohnBell\Course Folders\Cs 526 - cg ii\WeatherDisplay\WeatherDisplay.exe
ASCII
DATASET STRUCTURED_GRID
DIMENSIONS 10 12 31
POINTS 3720 float
-89.3 37 0 
-89.2111 37 0 
-89.1222 37 0 
-89.0333 37 0 
-88.9444 37 0 
-88.8556 37 0 
-88.7667 37 0 
-88.6778 37 0 
-88.5889 37 0 
-88.5 37 0 
-89.5 37.5 0 
-89.3408 37.5 0 
-89.1816 37.5 0 
-89.0223 37.5 0 
-88.8631 37.5 0 
-88.7039 37.5 0 
-88.5447 37.5 0 
-88.3854 37.5 0 
-88.2262 37.5 0 
-88.067 37.5 0 
-90.05 38 0 
-89.825 38 0 
-89.6 38 0 
-89.375 38 0 
-89.15 38 0 
-88.925 38 0 
-88.7 38 0 
-88.475 38 0 
-88.25 38 0 
-88.025 38 0 
-90.267 38.5 0 
-89.9799 38.5 0 
-89.6928 38.5 0 
-89.4057 38.5 0 
-89.1186 38.5 0 
-88.8314 38.5 0 
-88.5443 38.5 0 
-88.2572 38.5 0 
-87.9701 38.5 0 
-87.683 38.5 0 
-90.683 39 0 
-90.3386 39 0 
-89.9941 39 0 
-89.6497 39 0 
-89.3052 39 0 
-88.9608 39 0 
-88.6163 39 0 
-88.2719 39 0 
-87.9274 39 0 
-87.583 39 0 
-91.067 39.5 0 
-90.6743 39.5 0 
-90.2817 39.5 0 
-89.889 39.5 0 
-89.4963 39.5 0 
-89.1037 39.5 0 
-88.711 39.5 0 
-88.3183 39.5 0 
-87.9257 39.5 0 
-87.533 39.5 0 
-91.467 40 0 
-91.0299 40 0 
-90.5928 40 0 
-90.1557 40 0 
-89.7186 40 0 
-89.2814 40 0 
-88.8443 40 0 
-88.4072 40 0 
-87.9701 40 0 
-87.533 40 0 
-91.367 40.5 0 
-90.9401 40.5 0 
-90.5132 40.5 0 
-90.0863 40.5 0 
-89.6594 40.5 0 
-89.2326 40.5 0 
-88.8057 40.5 0 
-88.3788 40.5 0 
-87.9519 40.5 0 
-87.525 40.5 0 
-90.933 41 0 
-90.5543 41 0 
-90.1757 41 0 
-89.797 41 0 
-89.4183 41 0 
-89.0397 41 0 
-88.661 41 0 
-88.2823 41 0 
-87.9037 41 0 
-87.525 41 0 
-91.125 41.5 0 
-90.725 41.5 0 
-90.325 41.5 0 
-89.925 41.5 0 
-89.525 41.5 0 
-89.125 41.5 0 
-88.725 41.5 0 
-88.325 41.5 0 
-87.925 41.5 0 
-87.525 41.5 0 
-90.142 42 0 
-89.8651 42 0 
-89.5882 42 0 
-89.3113 42 0 
-89.0344 42 0 
-88.7576 42 0 
-88.4807 42 0 
-88.2038 42 0 
-87.9269 42 0 
-87.65 42 0 
-90.65 42.508 0 
-90.3333 42.508 0 
-90.0167 42.508 0 
-89.7 42.508 0 
-89.3833 42.508 0 
-89.0667 42.508 0 
-88.75 42.508 0 
-88.4333 42.508 0 
-88.1167 42.508 0 
-87.8 42.508 0 
-89.3 37 0 
-89.2111 37 0 
-89.1222 37 0 
-89.0333 37 0 
-88.9444 37 0 
-88.8556 37 0 
-88.7667 37 0 
-88.6778 37 0 
-88.5889 37 0 
-88.5 37 0 
-89.5 37.5 0 
-89.3408 37.5 0 
-89.1816 37.5 0 
-89.0223 37.5 0 
-88.8631 37.5 0 
-88.7039 37.5 0 
-88.5447 37.5 0 
-88.3854 37.5 0 
-88.2262 37.5 0 
-88.067 37.5 0 
-90.05 38 0 
-89.825 38 0 
-89.6 38 0 
-89.375 38 0 
-89.15 38 0 
-88.925 38 0 
-88.7 38 0 
-88.475 38 0 
-88.25 38 0 
-88.025 38 0 
-90.267 38.5 0 
-89.9799 38.5 0 
-89.6928 38.5 0 
-89.4057 38.5 0 
-89.1186 38.5 0 
-88.8314 38.5 0 
-88.5443 38.5 0 
-88.2572 38.5 0 
-87.9701 38.5 0 
-87.683 38.5 0 
-90.683 39 0 
-90.3386 39 0 
-89.9941 39 0 
-89.6497 39 0 
-89.3052 39 0 
-88.9608 39 0 
-88.6163 39 0 
-88.2719 39 0 
-87.9274 39 0 
-87.583 39 0 
-91.067 39.5 0 
-90.6743 39.5 0 
-90.2817 39.5 0 
-89.889 39.5 0 
-89.4963 39.5 0 
-89.1037 39.5 0 
-88.711 39.5 0 
-88.3183 39.5 0 
-87.9257 39.5 0 
-87.533 39.5 0 
-91.467 40 0 
-91.0299 40 0 
-90.5928 40 0 
-90.1557 40 0 
-89.7186 40 0 
-89.2814 40 0 
-88.8443 40 0 
-88.4072 40 0 
-87.9701 40 0 
-87.533 40 0 
-91.367 40.5 0 
-90.9401 40.5 0 
-90.5132 40.5 0 
-90.0863 40.5 0 
-89.6594 40.5 0 
-89.2326 40.5 0 
-88.8057 40.5 0 
-88.3788 40.5 0 
-87.9519 40.5 0 
-87.525 40.5 0 
-90.933 41 0 
-90.5543 41 0 
-90.1757 41 0 
-89.797 41 0 
-89.4183 41 0 
-89.0397 41 0 
-88.661 41 0 
-88.2823 41 0 
-87.9037 41 0 
-87.525 41 0 
-91.125 41.5 0 
-90.725 41.5 0 
-90.325 41.5 0 
-89.925 41.5 0 
-89.525 41.5 0 
-89.125 41.5 0 
-88.725 41.5 0 
-88.325 41.5 0 
-87.925 41.5 0 
-87.525 41.5 0 
-90.142 42 0 
-89.8651 42 0 
-89.5882 42 0 
-89.3113 42 0 
-89.0344 42 0 
-88.7576 42 0 
-88.4807 42 0 
-88.2038 42 0 
-87.9269 42 0 
-87.65 42 0 
-90.65 42.508 0 
-90.3333 42.508 0 
-90.0167 42.508 0 
-89.7 42.508 0 
-89.3833 42.508 0 
-89.0667 42.508 0 
-88.75 42.508 0 
-88.4333 42.508 0 
-88.1167 42.508 0 
-87.8 42.508 0 
-89.3 37 0 
-89.2111 37 0 
-89.1222 37 0 
-89.0333 37 0 
-88.9444 37 0 
-88.8556 37 0 
-88.7667 37 0 
-88.6778 37 0 
-88.5889 37 0 
-88.5 37 0 
-89.5 37.5 0 
-89.3408 37.5 0 
-89.1816 37.5 0 
-89.0223 37.5 0 
-88.8631 37.5 0 
-88.7039 37.5 0 
-88.5447 37.5 0 
-88.3854 37.5 0 
-88.2262 37.5 0 
-88.067 37.5 0 
-90.05 38 0 
-89.825 38 0 
-89.6 38 0 
-89.375 38 0 
-89.15 38 0 
-88.925 38 0 
-88.7 38 0 
-88.475 38 0 
-88.25 38 0 
-88.025 38 0 
-90.267 38.5 0 
-89.9799 38.5 0 
-89.6928 38.5 0 
-89.4057 38.5 0 
-89.1186 38.5 0 
-88.8314 38.5 0 
-88.5443 38.5 0 
-88.2572 38.5 0 
-87.9701 38.5 0 
-87.683 38.5 0 
-90.683 39 0 
-90.3386 39 0 
-89.9941 39 0 
-89.6497 39 0 
-89.3052 39 0 
-88.9608 39 0 
-88.6163 39 0 
-88.2719 39 0 
-87.9274 39 0 
-87.583 39 0 
-91.067 39.5 0 
-90.6743 39.5 0 
-90.2817 39.5 0 
-89.889 39.5 0 
-89.4963 39.5 0 
-89.1037 39.5 0 
-88.711 39.5 0 
-88.3183 39.5 0 
-87.9257 39.5 0 
-87.533 39.5 0 
-91.467 40 0 
-91.0299 40 0 
-90.5928 40 0 
-90.1557 40 0 
-89.7186 40 0 
-89.2814 40 0 
-88.8443 40 0 
-88.4072 40 0 
-87.9701 40 0 
-87.533 40 0 
-91.367 40.5 0 
-90.9401 40.5 0 
-90.5132 40.5 0 
-90.0863 40.5 0 
-89.6594 40.5 0 
-89.2326 40.5 0 
-88.8057 40.5 0 
-88.3788 40.5 0 
-87.9519 40.5 0 
-87.525 40.5 0 
-90.933 41 0 
-90.5543 41 0 
-90.1757 41 0 
-89.797 41 0 
-89.4183 41 0 
-89.0397 41 0 
-88.661 41 0 
-88.2823 41 0 
-87.9037 41 0 
-87.525 41 0 
-91.125 41.5 0 
-90.725 41.5 0 
-90.325 41.5 0 
-89.925 41.5 0 
-89.525 41.5 0 
-89.125 41.5 0 
-88.725 41.5 0 
-88.325 41.5 0 
-87.925 41.5 0 
-87.525 41.5 0 
-90.142 42 0 
-89.8651 42 0 
-89.5882 42 0 
-89.3113 42 0 
-89.0344 42 0 
-88.7576 42 0 
-88.4807 42 0 
-88.2038 42 0 
-87.9269 42 0 
-87.65 42 0 
-90.65 42.508 0 
-90.3333 42.508 0 
-90.0167 42.508 0 
-89.7 42.508 0 
-89.3833 42.508 0 
-89.0667 42.508 0 
-88.75 42.508 0 
-88.4333 42.508 0 
-88.1167 42.508 0 
-87.8 42.508 0 
-89.3 37 0 
-89.2111 37 0 
-89.1222 37 0 
-89.0333 37 0 
-88.9444 37 0 
-88.8556 37 0 
-88.7667 37 0 
-88.6778 37 0 
-88.5889 37 0 
-88.5 37 0 
-89.5 37.5 0 
-89.3408 37.5 0 
-89.1816 37.5 0 
-89.0223 37.5 0 
-88.8631 37.5 0 
-88.7039 37.5 0 
-88.5447 37.5 0 
-88.3854 37.5 0 
-88.2262 37.5 0 
-88.067 37.5 0 
-90.05 38 0 
-89.825 38 0 
-89.6 38 0 
-89.375 38 0 
-89.15 38 0 
-88.925 38 0 
-88.7 38 0 
-88.475 38 0 
-88.25 38 0 
-88.025 38 0 
-90.267 38.5 0 
-89.9799 38.5 0 
-89.6928 38.5 0 
-89.4057 38.5 0 
-89.1186 38.5 0 
-88.8314 38.5 0 
-88.5443 38.5 0 
-88.2572 38.5 0 
-87.9701 38.5 0 
-87.683 38.5 0 
-90.683 39 0 
-90.3386 39 0 
-89.9941 39 0 
-89.6497 39 0 
-89.3052 39 0 
-88.9608 39 0 
-88.6163 39 0 
-88.2719 39 0 
-87.9274 39 0 
-87.583 39 0 
-91.067 39.5 0 
-90.6743 39.5 0 
-90.2817 39.5 0 
-89.889 39.5 0 
-89.4963 39.5 0 
-89.1037 39.5 0 
-88.711 39.5 0 
-88.3183 39.5 0 
-87.9257 39.5 0 
-87.533 39.5 0 
-91.467 40 0 
-91.0299 40 0 
-90.5928 40 0 
-90.1557 40 0 
-89.7186 40 0 
-89.2814 40 0 
-88.8443 40 0 
-88.4072 40 0 
-87.9701 40 0 
-87.533 40 0 
-91.367 40.5 0 
-90.9401 40.5 0 
-90.5132 40.5 0 
-90.0863 40.5 0 
-89.6594 40.5 0 
-89.2326 40.5 0 
-88.8057 40.5 0 
-88.3788 40.5 0 
-87.9519 40.5 0 
-87.525 40.5 0 
-90.933 41 0 
-90.5543 41 0 
-90.1757 41 0 
-89.797 41 0 
-89.4183 41 0 
-89.0397 41 0 
-88.661 41 0 
-88.2823 41 0 
-87.9037 41 0 
-87.525 41 0 
-91.125 41.5 0 
-90.725 41.5 0 
-90.325 41.5 0 
-89.925 41.5 0 
-89.525 41.5 0 
-89.125 41.5 0 
-88.725 41.5 0 
-88.325 41.5 0 
-87.925 41.5 0 
-87.525 41.5 0 
-90.142 42 0 
-89.8651 42 0 
-89.5882 42 0 
-89.3113 42 0 
-89.0344 42 0 
-88.7576 42 0 
-88.4807 42 0 
-88.2038 42 0 
-87.9269 42 0 
-87.65 42 0 
-90.65 42.508 0 
-90.3333 42.508 0 
-90.0167 42.508 0 
-89.7 42.508 0 
-89.3833 42.508 0 
-89.0667 42.508 0 
-88.75 42.508 0 
-88.4333 42.508 0 
-88.1167 42.508 0 
-87.8 42.508 0 
-89.3 37 0 
-89.2111 37 0 
-89.1222 37 0 
-89.0333 37 0 
-88.9444 37 0 
-88.8556 37 0 
-88.7667 37 0 
-88.6778 37 0 
-88.5889 37 0 
-88.5 37 0 
-89.5 37.5 0 
-89.3408 37.5 0 
-89.1816 37.5 0 
-89.0223 37.5 0 
-88.8631 37.5 0 
-88.7039 37.5 0 
-88.5447 37.5 0 
-88.3854 37.5 0 
-88.2262 37.5 0 
-88.067 37.5 0 
-90.05 38 0 
-89.825 38 0 
-89.6 38 0 
-89.375 38 0 
-89.15 38 0 
-88.925 38 0 
-88.7 38 0 
-88.475 38 0 
-88.25 38 0 
-88.025 38 0 
-90.267 38.5 0 
-89.9799 38.5 0 
-89.6928 38.5 0 
-89.4057 38.5 0 
-89.1186 38.5 0 
-88.8314 38.5 0 
-88.5443 38.5 0 
-88.2572 38.5 0 
-87.9701 38.5 0 
-87.683 38.5 0 
-90.683 39 0 
-90.3386 39 0 
-89.9941 39 0 
-89.6497 39 0 
-89.3052 39 0 
-88.9608 39 0 
-88.6163 39 0 
-88.2719 39 0 
-87.9274 39 0 
-87.583 39 0 
-91.067 39.5 0 
-90.6743 39.5 0 
-90.2817 39.5 0 
-89.889 39.5 0 
-89.4963 39.5 0 
-89.1037 39.5 0 
-88.711 39.5 0 
-88.3183 39.5 0 
-87.9257 39.5 0 
-87.533 39.5 0 
-91.467 40 0 
-91.0299 40 0 
-90.5928 40 0 
-90.1557 40 0 
-89.7186 40 0 
-89.2814 40 0 
-88.8443 40 0 
-88.4072 40 0 
-87.9701 40 0 
-87.533 40 0 
-91.367 40.5 0 
-90.9401 40.5 0 
-90.5132 40.5 0 
-90.0863 40.5 0 
-89.6594 40.5 0 
-89.2326 40.5 0 
-88.8057 40.5 0 
-88.3788 40.5 0 
-87.9519 40.5 0 
-87.525 40.5 0 
-90.933 41 0 
-90.5543 41 0 
-90.1757 41 0 
-89.797 41 0 
-89.4183 41 0 
-89.0397 41 0 
-88.661 41 0 
-88.2823 41 0 
-87.9037 41 0 
-87.525 41 0 
-91.125 41.5 0 
-90.725 41.5 0 
-90.325 41.5 0 
-89.925 41.5 0 
-89.525 41.5 0 
-89.125 41.5 0 
-88.725 41.5 0 
-88.325 41.5 0 
-87.925 41.5 0 
-87.525 41.5 0 
-90.142 42 0 
-89.8651 42 0 
-89.5882 42 0 
-89.3113 42 0 
-89.0344 42 0 
-88.7576 42 0 
-88.4807 42 0 
-88.2038 42 0 
-87.9269 42 0 
-87.65 42 0 
-90.65 42.508 0 
-90.3333 42.508 0 
-90.0167 42.508 0 
-89.7 42.508 0 
-89.3833 42.508 0 
-89.0667 42.508 0 
-88.75 42.508 0 
-88.4333 42.508 0 
-88.1167 42.508 0 
-87.8 42.508 0 
-89.3 37 0 
-89.2111 37 0 
-89.1222 37 0 
-89.0333 37 0 
-88.9444 37 0 
-88.8556 37 0 
-88.7667 37 0 
-88.6778 37 0 
-88.5889 37 0 
-88.5 37 0 
-89.5 37.5 0 
-89.3408 37.5 0 
-89.1816 37.5 0 
-89.0223 37.5 0 
-88.8631 37.5 0 
-88.7039 37.5 0 
-88.5447 37.5 0 
-88.3854 37.5 0 
-88.2262 37.5 0 
-88.067 37.5 0 
-90.05 38 0 
-89.825 38 0 
-89.6 38 0 
-89.375 38 0 
-89.15 38 0 
-88.925 38 0 
-88.7 38 0 
-88.475 38 0 
[...]
POINT_DATA 3720
VECTORS WindVector float
0.040821 -0.0410532 0 
0.0404356 -0.0405662 0 
0.039961 -0.0397529 0 
0.0394176 -0.0386871 0 
0.0388492 -0.0374951 0 
0.03832 -0.0363363 0 
0.0379008 -0.0353649 0 
0.0376464 -0.0346833 0 
0.0375774 -0.0343132 0 
0.0376762 -0.034201 0 
0.0430909 -0.0528316 0 
0.0440239 -0.0570746 0 
0.0437243 -0.0567611 0 
0.0407022 -0.048071 0 
0.0362737 -0.0354652 0 
0.0333552 -0.0273009 0 
0.0343019 -0.0297369 0 
0.0360886 -0.0338361 0 
0.0375452 -0.0364652 0 
0.0386003 -0.0376058 0 
0.0363477 -0.0444478 0 
0.0368632 -0.0473293 0 
0.039406 -0.049213 0 
0.0410575 -0.0520206 0 
0.038508 -0.0514842 0 
0.0333833 -0.0495486 0 
0.035676 -0.0475445 0 
0.0369539 -0.0473326 0 
0.0374574 -0.0476054 0 
0.0386342 -0.0459616 0 
0.0330039 -0.044754 0 
0.0194081 -0.0654098 0 
0.0248535 -0.0594924 0 
0.0405828 -0.045101 0 
0.0445415 -0.0441083 0 
0.0431147 -0.0463277 0 
0.0371176 -0.053552 0 
0.0353517 -0.0565933 0 
0.0379319 -0.0548382 0 
0.0407816 -0.0476177 0 
0.0538293 -0.00384486 0 
0.0492862 -0.0165844 0 
0.045508 -0.028465 0 
0.0491661 -0.0307087 0 
0.0573009 -0.0349255 0 
0.0689939 -0.0441235 0 
0.0558123 -0.0425427 0 
0.0449357 -0.0498983 0 
0.0430618 -0.0506465 0 
0.0462946 -0.0415613 0 
0.0688303 0.0245461 0 
0.0695819 0.0224476 0 
0.0633009 0.00794427 0 
0.0676191 -0.00426103 0 
0.0715237 -0.00999561 0 
0.0641941 -0.0226522 0 
0.0670948 -0.036267 0 
0.0706201 -0.0445256 0 
0.0643162 -0.040017 0 
0.0564984 -0.0317868 0 
0.0593425 0.0296746 0 
0.0715549 0.0325442 0 
0.0703223 0.0299896 0 
0.0729256 0.0264973 0 
0.0702315 0.00904716 0 
0.0673856 -0.00228602 0 
0.0765363 -0.0320026 0 
0.130516 -0.112659 0 
0.0818706 -0.0448868 0 
0.0610846 -0.0228658 0 
0.0502599 0.046492 0 
0.0494058 0.0599248 0 
0.0545513 0.0505961 0 
0.0650753 0.033251 0 
0.0717795 0.0277889 0 
0.0692653 0.0160666 0 
0.0609223 -0.000998374 0 
0.0643733 -0.00999515 0 
0.0541905 0.00458017 0 
0.0467223 0.00601291 0 
0.0353988 0.09962 0 
0.0360229 0.0985017 0 
0.0497587 0.048851 0 
0.0592862 0.0372758 0 
0.062766 0.0289097 0 
0.0385639 0.0336746 0 
0.0223201 0.0482676 0 
0.0112443 0.102443 0 
0.0158768 0.0797954 0 
0.0244035 0.04025 0 
0.0355325 0.0610079 0 
0.0337534 0.0652109 0 
0.0309159 0.0545861 0 
0.0250344 0.0472925 0 
0.0119851 0.050265 0 
-0.022574 0.0690396 0 
-0.0427857 0.0801441 0 
-0.0314171 0.0726359 0 
-0.0112769 0.0644858 0 
0.00413781 0.0490251 0 
-0.00569423 0.0551952 0 
-0.0249741 0.0602009 0 
-0.0331308 0.0636042 0 
-0.0394904 0.072989 0 
-0.0729428 0.099445 0 
-0.0836283 0.105785 0 
-0.0726824 0.0815168 0 
-0.0671012 0.0778079 0 
-0.0402663 0.067655 0 
-0.0189661 0.0569213 0 
0.00739108 0.0488553 0 
-0.00687224 0.0533266 0 
-0.026487 0.059535 0 
-0.0404877 0.0639886 0 
-0.0361579 0.0645477 0 
-0.0368481 0.0693176 0 
-0.0417241 0.0724929 0 
-0.0415819 0.0701392 0 
-0.0348689 0.0649543 0 
-0.0228468 0.0576431 0 
0.00485839 0.066947 0 
0.00538053 0.0661341 0 
0.00579473 0.0652799 0 
0.00613316 0.0643901 0 
0.00641649 0.0635057 0 
0.00663437 0.0627109 0 
0.00673967 0.0621198 0 
0.00666596 0.0618385 0 
0.00636081 0.0619218 0 
0.00581204 0.062354 0 
0.011066 0.0667122 0 
0.014539 0.0652069 0 
0.0152002 0.0642963 0 
0.0129013 0.0621071 0 
0.0115551 0.0574369 0 
0.0123746 0.0531769 0 
0.011403 0.0549985 0 
0.00875858 0.0588826 0 
0.00584619 0.0624185 0 
0.0032256 0.0651883 0 
-0.00144072 0.079028 0 
0.00182695 0.0766616 0 
0.00574547 0.0718524 0 
0.0106888 0.0664368 0 
0.0145071 0.0602454 0 
0.0186296 0.052608 0 
0.0130752 0.0579033 0 
0.00768463 0.0626399 0 
0.00517301 0.0646054 0 
0.00274971 0.0663947 0 
-0.00426928 0.0841135 0 
0.00745454 0.0891965 0 
0.00472991 0.0865732 0 
7.44092e-005 0.0773787 0 
0.00319039 0.0715753 0 
0.00497319 0.0685198 0 
0.00582034 0.065203 0 
0.00709816 0.0624182 0 
0.00629178 0.0609359 0 
-0.000361232 0.0679547 0 
-0.0281388 0.0770181 0 
-0.0223057 0.0798466 0 
-0.0161916 0.0823625 0 
-0.0149562 0.0829059 0 
-0.010104 0.0847442 0 
0.000947877 0.0905123 0 
-0.00561324 0.0824878 0 
-0.00123366 0.0701972 0 
-0.000830693 0.0683376 0 
-0.0104119 0.0784439 0 
-0.0376329 0.0661919 0 
-0.0375327 0.0659253 0 
-0.038455 0.073884 0 
-0.0364057 0.0784542 0 
-0.0345539 0.0807275 0 
-0.0283081 0.0902247 0 
-0.0289978 0.101216 0 
-0.0322797 0.108088 0 
-0.0299523 0.103028 0 
-0.0289502 0.0990798 0 
-0.0443405 0.0747215 0 
-0.0404827 0.0640375 0 
-0.0441009 0.0650767 0 
-0.0573056 0.0578907 0 
-0.0477256 0.0751794 0 
-0.0456966 0.0892842 0 
-0.0479911 0.117313 0 
-0.0716091 0.189508 0 
-0.0415509 0.117991 0 
-0.0421908 0.113549 0 
-0.0551066 0.0830374 0 
-0.0617687 0.0844442 0 
-0.0614876 0.0797365 0 
-0.0592803 0.070201 0 
-0.065607 0.0787265 0 
-0.0650254 0.0915873 0 
-0.0577678 0.11621 0 
-0.0585559 0.132407 0 
-0.0585905 0.130045 0 
-0.0542863 0.122929 0 
-0.0791837 0.0973024 0 
-0.0792392 0.0969079 0 
-0.0632563 0.0851368 0 
-0.0617843 0.0799385 0 
-0.0690947 0.0895203 0 
-0.0662747 0.108138 0 
-0.0706535 0.129713 0 
-0.0923118 0.158613 0 
-0.0830611 0.149188 0 
-0.0657545 0.131146 0 
-0.0639028 0.0930914 0 
-0.0662507 0.0940169 0 
-0.0631307 0.0936683 0 
-0.0617114 0.0960311 0 
-0.0646393 0.106905 0 
-0.0725688 0.133294 0 
-0.0772335 0.14719 0 
-0.0759946 0.140808 0 
-0.0735138 0.137486 0 
-0.0668901 0.13033 0 
-0.0576267 0.0969564 0 
-0.0558085 0.0959337 0 
-0.0566991 0.0992983 0 
-0.0666556 0.123188 0 
-0.0814527 0.16044 0 
-0.0848872 0.168438 0 
-0.0781444 0.142994 0 
-0.0769084 0.140227 0 
-0.0726552 0.135881 0 
-0.0682886 0.130847 0 
-0.0568709 0.0979302 0 
-0.0564652 0.0980006 0 
-0.0548021 0.0955706 0 
-0.0529628 0.0921564 0 
-0.0574786 0.102823 0 
-0.0660649 0.123268 0 
-0.0707351 0.133939 0 
-0.0714313 0.134833 0 
-0.0700145 0.132431 0 
-0.067224 0.128795 0 
-0.0323315 0.0409394 0 
-0.031755 0.0409255 0 
-0.0311561 0.0409019 0 
-0.0305283 0.0408695 0 
-0.0298934 0.0408333 0 
-0.0293138 0.0408052 0 
-0.0288847 0.0408045 0 
-0.028701 0.0408541 0 
-0.0288164 0.0409718 0 
-0.0292212 0.0411627 0 
-0.0307986 0.0407986 0 
-0.0290055 0.0407545 0 
-0.0283989 0.0406804 0 
-0.0280654 0.0404001 0 
-0.0250635 0.03988 0 
-0.021116 0.0392167 0 
-0.0229823 0.0397337 0 
-0.0268661 0.0411898 0 
-0.0301745 0.0427701 0 
-0.0325264 0.0440021 0 
-0.0382953 0.0417549 0 
-0.036851 0.0418421 0 
-0.034829 0.0412254 0 
-0.0326967 0.0401412 0 
-0.0328655 0.037474 0 
-0.0343834 0.0330705 0 
-0.0340911 0.0391222 0 
-0.03444 0.0473181 0 
-0.035044 0.0506149 0 
-0.0355266 0.0502662 0 
-0.0401485 0.0418386 0 
-0.0375207 0.0452403 0 
-0.0378773 0.0445133 0 
-0.0382379 0.0428086 0 
-0.0376381 0.0425829 0 
-0.0371642 0.045169 0 
-0.0365999 0.0567854 0 
-0.0353832 0.059226 0 
-0.0333253 0.0539787 0 
-0.0359703 0.0513593 0 
-0.0475209 0.0302034 0 
-0.0447753 0.0355928 0 
-0.0422261 0.0399034 0 
-0.0413456 0.0420422 0 
-0.0409938 0.0455151 0 
-0.0400719 0.0507399 0 
-0.039794 0.049192 0 
-0.0360002 0.0514707 0 
-0.0352954 0.0517241 0 
-0.0392897 0.0496468 0 
-0.0526965 0.0108176 0 
-0.0517401 0.0121064 0 
-0.048133 0.0288219 0 
-0.0415462 0.0379793 0 
-0.0381259 0.0410404 0 
-0.044264 0.0436252 0 
-0.0459479 0.0462264 0 
-0.0456365 0.0470402 0 
-0.0443433 0.0470573 0 
-0.0452234 0.0473616 0 
-0.0567054 0.0192269 0 
-0.0545936 0.0064329 0 
-0.053469 0.0131436 0 
-0.0472404 0.0291495 0 
-0.0463865 0.0358453 0 
-0.0499672 0.0397386 0 
-0.0527989 0.0454666 0 
-0.0689323 0.058666 0 
-0.0409014 0.0425979 0 
-0.0491297 0.0473002 0 
-0.0646978 0.0240841 0 
-0.0698325 0.0236782 0 
-0.0648807 0.0266204 0 
-0.0559203 0.0299781 0 
-0.0658261 0.0325029 0 
-0.0670257 0.0373583 0 
-0.0599157 0.0461136 0 
-0.0574325 0.0531146 0 
-0.0576496 0.0553911 0 
-0.0574895 0.0526744 0 
-0.0876116 0.0251424 0 
-0.0871523 0.0254573 0 
-0.066616 0.0296468 0 
-0.0630865 0.0309807 0 
-0.0706488 0.0348225 0 
-0.0686324 0.0412031 0 
-0.0706283 0.0550862 0 
-0.0833033 0.0872487 0 
-0.0774782 0.0766379 0 
-0.0668912 0.0585031 0 
-0.0715684 0.0277969 0 
-0.0731393 0.0275354 0 
-0.0685522 0.0282162 0 
-0.0658367 0.0292111 0 
-0.0683686 0.0325528 0 
-0.0764124 0.0394783 0 
-0.0805721 0.0446122 0 
-0.0774947 0.0499137 0 
-0.0743759 0.0544802 0 
-0.069527 0.0524522 0 
-0.0626072 0.0193816 0 
-0.0602229 0.0119721 0 
-0.060951 0.0115571 0 
-0.0710682 0.0264627 0 
-0.0860948 0.0401539 0 
-0.0894391 0.0428543 0 
-0.0811515 0.0410749 0 
-0.0798268 0.0414711 0 
-0.0759556 0.0439555 0 
-0.0721333 0.0456997 0 
-0.0632327 0.0251337 0 
-0.0620362 0.0201946 0 
-0.0595388 0.0114281 0 
-0.057184 0.00386244 0 
-0.0619324 0.0134859 0 
-0.0707237 0.0289437 0 
-0.0752487 0.0366276 0 
-0.075701 0.0395904 0 
-0.0743217 0.0410608 0 
-0.0719191 0.042225 0 
-0.104314 -0.0569268 0 
-0.101582 -0.0555342 0 
-0.0982839 -0.0540183 0 
-0.0945079 -0.0523946 0 
-0.090518 -0.0507471 0 
-0.0867617 -0.0492414 0 
-0.0837832 -0.0480963 0 
-0.0820439 -0.0475111 0 
-0.0817436 -0.0475842 0 
-0.0827625 -0.0482784 0 
-0.116021 -0.0581266 0 
-0.117096 -0.0560965 0 
-0.114805 -0.0546523 0 
-0.100493 -0.050379 0 
-0.0714335 -0.0406494 0 
-0.046345 -0.0314961 0 
-0.0556853 -0.0353202 0 
-0.0730793 -0.0431447 0 
-0.0861579 -0.0498251 0 
-0.0943586 -0.0546279 0 
-0.113568 -0.0757255 0 
-0.113844 -0.0721871 0 
-0.116151 -0.0656526 0 
-0.119651 -0.0591407 0 
-0.125495 -0.0539568 0 
-0.135433 -0.0489229 0 
-0.121033 -0.0523201 0 
-0.10808 -0.0568395 0 
-0.105119 -0.0596893 0 
-0.105194 -0.0617125 0 
-0.111929 -0.084171 0 
-0.104218 -0.0903099 0 
-0.106591 -0.0858973 0 
-0.113074 -0.0695962 0 
-0.115378 -0.0599848 0 
-0.114528 -0.0583335 0 
-0.107207 -0.0622221 0 
-0.1033 -0.0637275 0 
-0.100129 -0.0656372 0 
-0.106021 -0.0675309 0 
-0.126525 -0.086102 0 
-0.120831 -0.0843092 0 
-0.115379 -0.0828402 0 
-0.112925 -0.0781982 0 
-0.105812 -0.0657351 0 
-0.0856162 -0.0470679 0 
-0.104615 -0.0623066 0 
-0.105377 -0.0680834 0 
-0.105016 -0.0693635 0 
-0.11399 -0.0729429 0 
-0.136862 -0.094183 0 
-0.134844 -0.0930845 0 
-0.127072 -0.0863751 0 
-0.113848 -0.084622 0 
-0.107162 -0.0845132 0 
-0.119032 -0.0785188 0 
-0.129333 -0.0798213 0 
-0.13599 -0.0832559 0 
-0.13112 -0.0820107 0 
-0.129688 -0.0821533 0 
-0.145033 -0.0949632 0 
-0.140988 -0.096766 0 
-0.138378 -0.09269 0 
-0.128034 -0.075558 0 
-0.121474 -0.084796 0 
-0.129252 -0.089106 0 
-0.151632 -0.0940031 0 
-0.238104 -0.124478 0 
-0.129306 -0.0826403 0 
-0.140054 -0.0898645 0 
-0.16351 -0.100525 0 
-0.177089 -0.105072 0 
-0.162864 -0.0979912 0 
-0.133501 -0.0857111 0 
-0.137772 -0.0962961 0 
-0.150206 -0.100884 0 
-0.155864 -0.101214 0 
-0.162893 -0.105395 0 
-0.159401 -0.10662 0 
-0.153933 -0.102466 0 
-0.223919 -0.121609 0 
-0.221756 -0.12091 0 
-0.153678 -0.0984714 0 
-0.130676 -0.0932996 0 
-0.149664 -0.102198 0 
-0.154861 -0.104225 0 
-0.169317 -0.116337 0 
-0.211595 -0.155224 0 
-0.195324 -0.140638 0 
-0.166564 -0.114987 0 
-0.176021 -0.105191 0 
-0.178363 -0.106376 0 
-0.160353 -0.101003 0 
-0.146188 -0.0974857 0 
-0.148186 -0.0996987 0 
-0.163423 -0.106868 0 
-0.168125 -0.110993 0 
-0.157056 -0.111786 0 
-0.16214 -0.115076 0 
-0.158905 -0.110408 0 
-0.134876 -0.0932537 0 
-0.123339 -0.0896754 0 
-0.122984 -0.0899338 0 
-0.147068 -0.0996999 0 
-0.179009 -0.112326 0 
-0.182678 -0.114343 0 
-0.132852 -0.100925 0 
-0.130957 -0.100475 0 
-0.143351 -0.10376 0 
-0.14903 -0.104745 0 
-0.142149 -0.0950063 0 
-0.134238 -0.0928438 0 
-0.121961 -0.0890226 0 
-0.112068 -0.0857067 0 
-0.124747 -0.090784 0 
-0.145181 -0.0994108 0 
-0.151612 -0.103074 0 
-0.14794 -0.102903 0 
-0.145818 -0.102434 0 
-0.146685 -0.102259 0 
0.0664013 -0.0654857 0 
0.066039 -0.0646842 0 
0.065828 -0.0635353 0 
0.0657269 -0.0621221 0 
0.0656957 -0.0605938 0 
0.0657174 -0.0591461 0 
0.0658103 -0.0579758 0 
0.0660207 -0.0572239 0 
0.066396 -0.056934 0 
0.066958 -0.0570532 0 
0.0589644 -0.0764436 0 
0.0549855 -0.0816884 0 
0.0544023 -0.0812365 0 
0.057977 -0.0703545 0 
0.0613421 -0.0556413 0 
0.0618815 -0.0468006 0 
0.062497 -0.0494227 0 
0.0646551 -0.0541872 0 
0.0673375 -0.057888 0 
0.0698474 -0.0603428 0 
0.0743392 -0.0543191 0 
0.0709205 -0.0574167 0 
0.0659713 -0.0638462 0 
0.0597505 -0.0697316 0 
0.0548057 -0.0647282 0 
0.0491334 -0.0534288 0 
0.0575096 -0.0577389 0 
0.0662822 -0.0628671 0 
0.0697911 -0.0653403 0 
0.0716225 -0.0662027 0 
0.0780448 -0.0463118 0 
0.0703006 -0.0392458 0 
0.0719625 -0.0431241 0 
0.0745803 -0.054993 0 
0.0719806 -0.0584034 0 
0.0705984 -0.0607405 0 
0.0720393 -0.0683257 0 
0.0700458 -0.0715419 0 
0.06625 -0.0732793 0 
0.0728824 -0.0710739 0 
0.0945253 -0.0459884 0 
0.0902061 -0.0469822 0 
0.086342 -0.0478949 0 
0.086932 -0.0514781 0 
0.0894214 -0.0572306 0 
0.0938214 -0.0586261 0 
0.0862339 -0.0643265 0 
0.0741559 -0.0720493 0 
0.072265 -0.0737818 0 
0.0821724 -0.0718668 0 
0.101579 -0.0365945 0 
0.100197 -0.0359739 0 
0.0980933 -0.0414551 0 
0.0973497 -0.0460527 0 
0.0977751 -0.0489882 0 
0.099313 -0.0594631 0 
0.10184 -0.0702296 0 
0.10293 -0.0770522 0 
0.100066 -0.0753909 0 
0.099872 -0.0733982 0 
0.110396 -0.0427114 0 
0.104461 -0.0341391 0 
0.102586 -0.0333142 0 
0.0869438 -0.0201506 0 
0.100627 -0.0402385 0 
0.109153 -0.0541359 0 
0.116653 -0.0767288 0 
0.145819 -0.132221 0 
0.106153 -0.0755484 0 
0.113075 -0.0754039 0 
0.126861 -0.0473118 0 
0.137414 -0.0463366 0 
0.12682 -0.0414149 0 
0.108109 -0.0322037 0 
0.127851 -0.0409655 0 
0.13064 -0.0534757 0 
0.128479 -0.0721691 0 
0.1346 -0.0809505 0 
0.13768 -0.0773313 0 
0.131349 -0.0759868 0 
0.174382 -0.0532354 0 
0.173418 -0.052815 0 
0.130921 -0.0466195 0 
0.125059 -0.041815 0 
0.134101 -0.0516335 0 
0.133785 -0.0669523 0 
0.150618 -0.0767402 0 
0.205772 -0.0756608 0 
0.185617 -0.0764328 0 
0.14979 -0.0768563 0 
0.139131 -0.0551816 0 
0.141695 -0.055578 0 
0.13005 -0.0572283 0 
0.121361 -0.0612502 0 
0.122523 -0.0718113 0 
0.129832 -0.096722 0 
0.138959 -0.105893 0 
0.153478 -0.0876211 0 
0.155565 -0.0820313 0 
0.145962 -0.0794975 0 
0.104402 -0.0692063 0 
0.0915441 -0.0732344 0 
0.0901866 -0.0773358 0 
0.110922 -0.094372 0 
0.128559 -0.128623 0 
0.133942 -0.134641 0 
0.15417 -0.0890661 0 
0.15476 -0.0852932 0 
0.147315 -0.085461 0 
0.142133 -0.0830142 0 
0.111985 -0.067037 0 
0.103701 -0.0703186 0 
0.090066 -0.0733428 0 
0.0788098 -0.0744908 0 
0.0925961 -0.0797925 0 
0.11539 -0.0914157 0 
0.128833 -0.0959224 0 
0.136411 -0.0918867 0 
0.138503 -0.0875505 0 
0.13684 -0.084342 0 
-0.0568666 -0.0185492 0 
-0.0560978 -0.01879 0 
-0.0551628 -0.0186642 0 
-0.0540961 -0.0182847 0 
-0.0529776 -0.0177817 0 
-0.0519273 -0.0172487 0 
-0.0510796 -0.0167019 0 
-0.0505379 -0.0160835 0 
-0.0503365 -0.0153092 0 
-0.0504344 -0.0143244 0 
-0.0621314 -0.0349996 0 
-0.0628348 -0.0456495 0 
-0.0621128 -0.0465917 0 
-0.0571512 -0.0342642 0 
-0.0486939 -0.0231468 0 
-0.0423209 -0.0213778 0 
-0.0444758 -0.0200539 0 
-0.0483257 -0.015909 0 
-0.0510477 -0.0113105 0 
-0.0525713 -0.00738569 0 
-0.0672834 0.0166561 0 
-0.0667193 0.00971293 0 
-0.0645149 -0.0062981 0 
-0.0627097 -0.0223863 0 
-0.0605986 -0.0210794 0 
-0.0584258 -0.011064 0 
-0.0573784 -0.00969126 0 
-0.0562986 -0.00711665 0 
-0.0558657 -0.0043171 0 
-0.0553205 -0.000670401 0 
-0.0716645 0.0341692 0 
-0.081223 0.0582598 0 
-0.0773976 0.0480527 0 
-0.066299 0.017853 0 
-0.0626932 0.0084723 0 
-0.0607724 0.00516223 0 
-0.0580139 -0.00221069 0 
-0.0561575 -0.000377685 0 
-0.0531981 0.0125064 0 
-0.0537764 0.0118595 0 
-0.0611673 -0.000311985 0 
-0.063617 0.0128571 0 
-0.0662148 0.023693 0 
-0.0653192 0.0235569 0 
-0.0661026 0.0251821 0 
-0.0742846 0.0408383 0 
-0.0635184 0.0229077 0 
-0.0552146 0.0174508 0 
-0.0532499 0.0179753 0 
-0.0536658 0.0167997 0 
-0.0598338 -0.0417587 0 
-0.0599408 -0.0394025 0 
-0.0589534 -0.00414668 0 
-0.0588377 0.0112776 0 
-0.0590454 0.0149393 0 
-0.0608166 0.0205356 0 
-0.0616488 0.0222084 0 
-0.0602976 0.0213126 0 
-0.0564175 0.0211158 0 
-0.053407 0.0216164 0 
-0.0586151 -0.019731 0 
-0.0602771 -0.0502296 0 
-0.0592603 -0.0357534 0 
-0.056061 -0.00403626 0 
-0.0566712 0.0100345 0 
-0.0566869 0.0181034 0 
-0.0610575 0.0234591 0 
-0.0943721 0.0252869 0 
-0.0543365 0.0221907 0 
-0.0504382 0.0274169 0 
-0.0604071 -0.0031908 0 
-0.0644664 -0.00196513 0 
-0.0611777 0.0026249 0 
-0.054785 0.00775912 0 
-0.0550967 0.0200705 0 
-0.0545899 0.0247335 0 
-0.0504205 0.0316346 0 
-0.0479256 0.037612 0 
-0.0410436 0.0420904 0 
-0.0407158 0.0395412 0 
-0.0750965 0.00999348 0 
-0.0744469 0.0108537 0 
-0.0547018 0.016886 0 
-0.0506309 0.0213605 0 
-0.0512457 0.0271615 0 
-0.0406162 0.0376962 0 
-0.028557 0.0539376 0 
-0.00960566 0.0860931 0 
-0.0160569 0.0745781 0 
-0.0278263 0.0537692 0 
-0.0561327 0.0153865 0 
-0.0554457 0.0175939 0 
-0.0457101 0.0235496 0 
-0.0355717 0.0313717 0 
-0.0289055 0.0409915 0 
-0.0192289 0.0590423 0 
-0.00964397 0.0704384 0 
-0.00216261 0.0705829 0 
-0.0101379 0.0658277 0 
-0.0196708 0.0566591 0 
-0.0113842 0.0411784 0 
0.00657951 0.0490923 0 
0.0112503 0.0531511 0 
-0.00134924 0.0606512 0 
-0.00538586 0.0792739 0 
-0.00262312 0.0847531 0 
0.0217949 0.0802222 0 
0.0207811 0.0782661 0 
0.00308746 0.0687055 0 
-0.00934322 0.0606517 0 
-0.024097 0.0348144 0 
-0.0109244 0.0414561 0 
0.00804427 0.0492246 0 
0.0223189 0.0540463 0 
0.0115219 0.0549724 0 
-0.00179659 0.06007 0 
-0.00363125 0.0649064 0 
-0.00137687 0.0661523 0 
-0.00300137 0.0640126 0 
-0.00899489 0.0593492 0 
0.0434668 -0.0387429 0 
0.0427689 -0.0388553 0 
0.0419804 -0.0385817 0 
0.0411186 -0.0380324 0 
0.0402363 -0.0373439 0 
0.0394235 -0.0366308 0 
0.0387899 -0.0359435 0 
0.0384284 -0.0352597 0 
0.038378 -0.0345151 0 
0.0386111 -0.0336504 0 
0.0460026 -0.0559473 0 
0.0454449 -0.0649719 0 
0.0446725 -0.0655315 0 
0.0415892 -0.0537923 0 
0.0357732 -0.0416631 0 
0.030875 -0.0378565 0 
0.0328274 -0.0375175 0 
0.0367654 -0.0353131 0 
0.0399853 -0.0322334 0 
0.0420481 -0.0292813 0 
0.0563716 -0.0231819 0 
0.0547968 -0.0293809 0 
0.0508171 -0.0386789 0 
0.046571 -0.0488007 0 
0.0416539 -0.0475545 0 
0.035523 -0.0408382 0 
0.0404528 -0.0368139 0 
0.0464301 -0.0311405 0 
0.0485096 -0.0281133 0 
0.0477951 -0.0262353 0 
0.0622886 -0.0146802 0 
0.070236 -0.0250316 0 
0.0668594 -0.0238603 0 
0.0566576 -0.0242281 0 
0.0525394 -0.0282826 0 
0.0514363 -0.0289313 0 
0.0548706 -0.0261693 0 
0.0530745 -0.0268669 0 
0.0446849 -0.0290579 0 
0.0456505 -0.0238583 0 
0.0547916 0.015744 0 
0.0574879 0.00701266 0 
0.0599862 -0.00119243 0 
0.0601774 -0.00468488 0 
0.0643175 -0.0147949 0 
0.0787079 -0.0314809 0 
0.0622702 -0.0221909 0 
0.0489225 -0.0245932 0 
0.0455237 -0.0248775 0 
0.0470295 -0.0169275 0 
0.0511265 0.0378492 0 
0.0518821 0.0369168 0 
0.0563384 0.0281519 0 
0.0576209 0.0258212 0 
0.057798 0.025094 0 
0.0616796 0.00417137 0 
0.0670145 -0.00638305 0 
0.0694999 -0.00999502 0 
0.0607782 -0.00894746 0 
0.0508169 -0.00513476 0 
0.0544175 0.0401735 0 
0.0518858 0.0437113 0 
0.0547243 0.0426063 0 
0.0629339 0.0422287 0 
0.0602428 0.0351556 0 
0.0596952 0.0261009 0 
0.0722562 0.00546964 0 
0.1472 -0.0256906 0 
0.0727003 -0.00891264 0 
0.0468516 0.00356737 0 
0.0635588 0.0494959 0 
0.0737325 0.056828 0 
0.0710071 0.0533485 0 
0.0659197 0.0469642 0 
0.0753912 0.0491741 0 
0.0654327 0.04192 0 
0.0446754 0.024447 0 
0.0345113 0.0135983 0 
0.0137221 0.0184803 0 
0.0137319 0.0206163 0 
0.0986814 0.0761732 0 
0.0981634 0.0759726 0 
0.0652649 0.0553918 0 
0.0658758 0.0522723 0 
0.0616271 0.051779 0 
0.0224573 0.0514493 0 
-0.0254187 0.0512951 0 
-0.11599 0.0611281 0 
-0.0839511 0.0541473 0 
-0.0281858 0.0408626 0 
0.0607394 0.0591962 0 
0.0611401 0.0623878 0 
0.0444718 0.0600194 0 
0.025502 0.0602092 0 
0.00283676 0.0662345 0 
-0.0452348 0.085184 0 
-0.0748394 0.0932953 0 
-0.0716033 0.0772434 0 
-0.0600806 0.0646459 0 
-0.0375335 0.0534248 0 
-0.00902195 0.0688638 0 
-0.0320993 0.0761405 0 
-0.0428242 0.0802488 0 
-0.0573368 0.0895998 0 
-0.103322 0.117561 0 
-0.116336 0.123875 0 
-0.0928693 0.0936192 0 
-0.0874579 0.0891285 0 
-0.0665281 0.0778717 0 
-0.0480367 0.0665062 0 
0.0058024 0.0610195 0 
-0.0116475 0.0672593 0 
-0.0338327 0.0754356 0 
-0.0485924 0.0810814 0 
-0.0475419 0.0810544 0 
-0.055008 0.0849675 0 
-0.0636451 0.0872237 0 
-0.0640242 0.0835774 0 
-0.0576859 0.0774649 0 
-0.0464273 0.069659 0 
-0.0661357 -0.0196005 0 
-0.0640979 -0.0197981 0 
-0.0618124 -0.0198319 0 