# vtk DataFile Version 3.0
Autogenerated from november.txt by weatherdisplay
ASCII
DATASET STRUCTURED_GRID
DIMENSIONS 10 12 30
POINTS 3600 float
-89.3 37 0 
-89.2111 37 0 
-89.1222 37 0 
-89.0333 37 0 
-88.9444 37 0 
-88.8556 37 0 
-88.7667 37 0 
-88.6778 37 0 
-88.5889 37 0 
-88.5 37 0 
-89.5 37.5 0 
-89.3408 37.5 0 
-89.1816 37.5 0 
-89.0223 37.5 0 
-88.8631 37.5 0 
-88.7039 37.5 0 
-88.5447 37.5 0 
-88.3854 37.5 0 
-88.2262 37.5 0 
-88.067 37.5 0 
-90.05 38 0 
-89.825 38 0 
-89.6 38 0 
-89.375 38 0 
-89.15 38 0 
-88.925 38 0 
-88.7 38 0 
-88.475 38 0 
-88.25 38 0 
-88.025 38 0 
-90.267 38.5 0 
-89.9799 38.5 0 
-89.6928 38.5 0 
-89.4057 38.5 0 
-89.1186 38.5 0 
-88.8314 38.5 0 
-88.5443 38.5 0 
-88.2572 38.5 0 
-87.9701 38.5 0 
-87.683 38.5 0 
-90.683 39 0 
-90.3386 39 0 
-89.9941 39 0 
-89.6497 39 0 
-89.3052 39 0 
-88.9608 39 0 
-88.6163 39 0 
-88.2719 39 0 
-87.9274 39 0 
-87.583 39 0 
-91.067 39.5 0 
-90.6743 39.5 0 
-90.2817 39.5 0 
-89.889 39.5 0 
-89.4963 39.5 0 
-89.1037 39.5 0 
-88.711 39.5 0 
-88.3183 39.5 0 
-87.9257 39.5 0 
-87.533 39.5 0 
-91.467 40 0 
-91.0299 40 0 
-90.5928 40 0 
-90.1557 40 0 
-89.7186 40 0 
-89.2814 40 0 
-88.8443 40 0 
-88.4072 40 0 
-87.9701 40 0 
-87.533 40 0 
-91.367 40.5 0 
-90.9401 40.5 0 
-90.5132 40.5 0 
-90.0863 40.5 0 
-89.6594 40.5 0 
-89.2326 40.5 0 
-88.8057 40.5 0 
-88.3788 40.5 0 
-87.9519 40.5 0 
-87.525 40.5 0 
-90.933 41 0 
-90.5543 41 0 
-90.1757 41 0 
-89.797 41 0 
-89.4183 41 0 
-89.0397 41 0 
-88.661 41 0 
-88.2823 41 0 
-87.9037 41 0 
-87.525 41 0 
-91.125 41.5 0 
-90.725 41.5 0 
-90.325 41.5 0 
-89.925 41.5 0 
-89.525 41.5 0 
-89.125 41.5 0 
-88.725 41.5 0 
-88.325 41.5 0 
-87.925 41.5 0 
-87.525 41.5 0 
-90.142 42 0 
-89.8651 42 0 
-89.5882 42 0 
-89.3113 42 0 
-89.0344 42 0 
-88.7576 42 0 
-88.4807 42 0 
-88.2038 42 0 
-87.9269 42 0 
-87.65 42 0 
-90.65 42.508 0 
-90.3333 42.508 0 
-90.0167 42.508 0 
-89.7 42.508 0 
-89.3833 42.508 0 
-89.0667 42.508 0 
-88.75 42.508 0 
-88.4333 42.508 0 
-88.1167 42.508 0 
-87.8 42.508 0 
-89.3 37 0 
-89.2111 37 0 
-89.1222 37 0 
-89.0333 37 0 
-88.9444 37 0 
-88.8556 37 0 
-88.7667 37 0 
-88.6778 37 0 
-88.5889 37 0 
-88.5 37 0 
-89.5 37.5 0 
-89.3408 37.5 0 
-89.1816 37.5 0 
-89.0223 37.5 0 
-88.8631 37.5 0 
-88.7039 37.5 0 
-88.5447 37.5 0 
-88.3854 37.5 0 
-88.2262 37.5 0 
-88.067 37.5 0 
-90.05 38 0 
-89.825 38 0 
-89.6 38 0 
-89.375 38 0 
-89.15 38 0 
-88.925 38 0 
-88.7 38 0 
-88.475 38 0 
-88.25 38 0 
-88.025 38 0 
-90.267 38.5 0 
-89.9799 38.5 0 
-89.6928 38.5 0 
-89.4057 38.5 0 
-89.1186 38.5 0 
-88.8314 38.5 0 
-88.5443 38.5 0 
-88.2572 38.5 0 
-87.9701 38.5 0 
-87.683 38.5 0 
-90.683 39 0 
-90.3386 39 0 
-89.9941 39 0 
-89.6497 39 0 
-89.3052 39 0 
-88.9608 39 0 
-88.6163 39 0 
-88.2719 39 0 
-87.9274 39 0 
-87.583 39 0 
-91.067 39.5 0 
-90.6743 39.5 0 
-90.2817 39.5 0 
-89.889 39.5 0 
-89.4963 39.5 0 
-89.1037 39.5 0 
-88.711 39.5 0 
-88.3183 39.5 0 
-87.9257 39.5 0 
-87.533 39.5 0 
-91.467 40 0 
-91.0299 40 0 
-90.5928 40 0 
-90.1557 40 0 
-89.7186 40 0 
-89.2814 40 0 
-88.8443 40 0 
-88.4072 40 0 
-87.9701 40 0 
-87.533 40 0 
-91.367 40.5 0 
-90.9401 40.5 0 
-90.5132 40.5 0 
-90.0863 40.5 0 
-89.6594 40.5 0 
-89.2326 40.5 0 
-88.8057 40.5 0 
-88.3788 40.5 0 
-87.9519 40.5 0 
-87.525 40.5 0 
-90.933 41 0 
-90.5543 41 0 
-90.1757 41 0 
-89.797 41 0 
-89.4183 41 0 
-89.0397 41 0 
-88.661 41 0 
-88.2823 41 0 
-87.9037 41 0 
-87.525 41 0 
-91.125 41.5 0 
-90.725 41.5 0 
-90.325 41.5 0 
-89.925 41.5 0 
-89.525 41.5 0 
-89.125 41.5 0 
-88.725 41.5 0 
-88.325 41.5 0 
-87.925 41.5 0 
-87.525 41.5 0 
-90.142 42 0 
-89.8651 42 0 
-89.5882 42 0 
-89.3113 42 0 
-89.0344 42 0 
-88.7576 42 0 
-88.4807 42 0 
-88.2038 42 0 
-87.9269 42 0 
-87.65 42 0 
-90.65 42.508 0 
-90.3333 42.508 0 
-90.0167 42.508 0 
-89.7 42.508 0 
-89.3833 42.508 0 
-89.0667 42.508 0 
-88.75 42.508 0 
-88.4333 42.508 0 
-88.1167 42.508 0 
-87.8 42.508 0 
-89.3 37 0 
-89.2111 37 0 
-89.1222 37 0 
-89.0333 37 0 
-88.9444 37 0 
-88.8556 37 0 
-88.7667 37 0 
-88.6778 37 0 
-88.5889 37 0 
-88.5 37 0 
-89.5 37.5 0 
-89.3408 37.5 0 
-89.1816 37.5 0 
-89.0223 37.5 0 
-88.8631 37.5 0 
-88.7039 37.5 0 
-88.5447 37.5 0 
-88.3854 37.5 0 
-88.2262 37.5 0 
-88.067 37.5 0 
-90.05 38 0 
-89.825 38 0 
-89.6 38 0 
-89.375 38 0 
-89.15 38 0 
-88.925 38 0 
-88.7 38 0 
-88.475 38 0 
-88.25 38 0 
-88.025 38 0 
-90.267 38.5 0 
-89.9799 38.5 0 
-89.6928 38.5 0 
-89.4057 38.5 0 
-89.1186 38.5 0 
-88.8314 38.5 0 
-88.5443 38.5 0 
-88.2572 38.5 0 
-87.9701 38.5 0 
-87.683 38.5 0 
-90.683 39 0 
-90.3386 39 0 
-89.9941 39 0 
-89.6497 39 0 
-89.3052 39 0 
-88.9608 39 0 
-88.6163 39 0 
-88.2719 39 0 
-87.9274 39 0 
-87.583 39 0 
-91.067 39.5 0 
-90.6743 39.5 0 
-90.2817 39.5 0 
-89.889 39.5 0 
-89.4963 39.5 0 
-89.1037 39.5 0 
-88.711 39.5 0 
-88.3183 39.5 0 
-87.9257 39.5 0 
-87.533 39.5 0 
-91.467 40 0 
-91.0299 40 0 
-90.5928 40 0 
-90.1557 40 0 
-89.7186 40 0 
-89.2814 40 0 
-88.8443 40 0 
-88.4072 40 0 
-87.9701 40 0 
-87.533 40 0 
-91.367 40.5 0 
-90.9401 40.5 0 
-90.5132 40.5 0 
-90.0863 40.5 0 
-89.6594 40.5 0 
-89.2326 40.5 0 
-88.8057 40.5 0 
-88.3788 40.5 0 
-87.9519 40.5 0 
-87.525 40.5 0 
-90.933 41 0 
-90.5543 41 0 
-90.1757 41 0 
-89.797 41 0 
-89.4183 41 0 
-89.0397 41 0 
-88.661 41 0 
-88.2823 41 0 
-87.9037 41 0 
-87.525 41 0 
-91.125 41.5 0 
-90.725 41.5 0 
-90.325 41.5 0 
-89.925 41.5 0 
-89.525 41.5 0 
-89.125 41.5 0 
-88.725 41.5 0 
-88.325 41.5 0 
-87.925 41.5 0 
-87.525 41.5 0 
-90.142 42 0 
-89.8651 42 0 
-89.5882 42 0 
-89.3113 42 0 
-89.0344 42 0 
-88.7576 42 0 
-88.4807 42 0 
-88.2038 42 0 
-87.9269 42 0 
-87.65 42 0 
-90.65 42.508 0 
-90.3333 42.508 0 
-90.0167 42.508 0 
-89.7 42.508 0 
-89.3833 42.508 0 
-89.0667 42.508 0 
-88.75 42.508 0 
-88.4333 42.508 0 
-88.1167 42.508 0 
-87.8 42.508 0 
-89.3 37 0 
-89.2111 37 0 
-89.1222 37 0 
-89.0333 37 0 
-88.9444 37 0 
-88.8556 37 0 
-88.7667 37 0 
-88.6778 37 0 
-88.5889 37 0 
-88.5 37 0 
-89.5 37.5 0 
-89.3408 37.5 0 
-89.1816 37.5 0 
-89.0223 37.5 0 
-88.8631 37.5 0 
-88.7039 37.5 0 
-88.5447 37.5 0 
-88.3854 37.5 0 
-88.2262 37.5 0 
-88.067 37.5 0 
-90.05 38 0 
-89.825 38 0 
-89.6 38 0 
-89.375 38 0 
-89.15 38 0 
-88.925 38 0 
-88.7 38 0 
-88.475 38 0 
-88.25 38 0 
-88.025 38 0 
-90.267 38.5 0 
-89.9799 38.5 0 
-89.6928 38.5 0 
-89.4057 38.5 0 
-89.1186 38.5 0 
-88.8314 38.5 0 
-88.5443 38.5 0 
-88.2572 38.5 0 
-87.9701 38.5 0 
-87.683 38.5 0 
-90.683 39 0 
-90.3386 39 0 
-89.9941 39 0 
-89.6497 39 0 
-89.3052 39 0 
-88.9608 39 0 
-88.6163 39 0 
-88.2719 39 0 
-87.9274 39 0 
-87.583 39 0 
-91.067 39.5 0 
-90.6743 39.5 0 
-90.2817 39.5 0 
-89.889 39.5 0 
-89.4963 39.5 0 
-89.1037 39.5 0 
-88.711 39.5 0 
-88.3183 39.5 0 
-87.9257 39.5 0 
-87.533 39.5 0 
-91.467 40 0 
-91.0299 40 0 
-90.5928 40 0 
-90.1557 40 0 
-89.7186 40 0 
-89.2814 40 0 
-88.8443 40 0 
-88.4072 40 0 
-87.9701 40 0 
-87.533 40 0 
-91.367 40.5 0 
-90.9401 40.5 0 
-90.5132 40.5 0 
-90.0863 40.5 0 
-89.6594 40.5 0 
-89.2326 40.5 0 
-88.8057 40.5 0 
-88.3788 40.5 0 
-87.9519 40.5 0 
-87.525 40.5 0 
-90.933 41 0 
-90.5543 41 0 
-90.1757 41 0 
-89.797 41 0 
-89.4183 41 0 
-89.0397 41 0 
-88.661 41 0 
-88.2823 41 0 
-87.9037 41 0 
-87.525 41 0 
-91.125 41.5 0 
-90.725 41.5 0 
-90.325 41.5 0 
-89.925 41.5 0 
-89.525 41.5 0 
-89.125 41.5 0 
-88.725 41.5 0 
-88.325 41.5 0 
-87.925 41.5 0 
-87.525 41.5 0 
-90.142 42 0 
-89.8651 42 0 
-89.5882 42 0 
-89.3113 42 0 
-89.0344 42 0 
-88.7576 42 0 
-88.4807 42 0 
-88.2038 42 0 
-87.9269 42 0 
-87.65 42 0 
-90.65 42.508 0 
-90.3333 42.508 0 
-90.0167 42.508 0 
-89.7 42.508 0 
-89.3833 42.508 0 
-89.0667 42.508 0 
-88.75 42.508 0 
-88.4333 42.508 0 
-88.1167 42.508 0 
-87.8 42.508 0 
-89.3 37 0 
-89.2111 37 0 
-89.1222 37 0 
-89.0333 37 0 
-88.9444 37 0 
-88.8556 37 0 
-88.7667 37 0 
-88.6778 37 0 
-88.5889 37 0 
-88.5 37 0 
-89.5 37.5 0 
-89.3408 37.5 0 
-89.1816 37.5 0 
-89.0223 37.5 0 
-88.8631 37.5 0 
-88.7039 37.5 0 
-88.5447 37.5 0 
-88.3854 37.5 0 
-88.2262 37.5 0 
-88.067 37.5 0 
-90.05 38 0 
-89.825 38 0 
-89.6 38 0 
-89.375 38 0 
-89.15 38 0 
-88.925 38 0 
-88.7 38 0 
-88.475 38 0 
-88.25 38 0 
-88.025 38 0 
-90.267 38.5 0 
-89.9799 38.5 0 
-89.6928 38.5 0 
-89.4057 38.5 0 
-89.1186 38.5 0 
-88.8314 38.5 0 
-88.5443 38.5 0 
-88.2572 38.5 0 
-87.9701 38.5 0 
-87.683 38.5 0 
-90.683 39 0 
-90.3386 39 0 
-89.9941 39 0 
-89.6497 39 0 
-89.3052 39 0 
-88.9608 39 0 
-88.6163 39 0 
-88.2719 39 0 
-87.9274 39 0 
-87.583 39 0 
-91.067 39.5 0 
-90.6743 39.5 0 
-90.2817 39.5 0 
-89.889 39.5 0 
-89.4963 39.5 0 
-89.1037 39.5 0 
-88.711 39.5 0 
-88.3183 39.5 0 
-87.9257 39.5 0 
-87.533 39.5 0 
-91.467 40 0 
-91.0299 40 0 
-90.5928 40 0 
-90.1557 40 0 
-89.7186 40 0 
-89.2814 40 0 
-88.8443 40 0 
-88.4072 40 0 
-87.9701 40 0 
-87.533 40 0 
-91.367 40.5 0 
-90.9401 40.5 0 
-90.5132 40.5 0 
-90.0863 40.5 0 
-89.6594 40.5 0 
-89.2326 40.5 0 
-88.8057 40.5 0 
-88.3788 40.5 0 
-87.9519 40.5 0 
-87.525 40.5 0 
-90.933 41 0 
-90.5543 41 0 
-90.1757 41 0 
-89.797 41 0 
-89.4183 41 0 
-89.0397 41 0 
-88.661 41 0 
-88.2823 41 0 
-87.9037 41 0 
-87.525 41 0 
-91.125 41.5 0 
-90.725 41.5 0 
-90.325 41.5 0 
-89.925 41.5 0 
-89.525 41.5 0 
-89.125 41.5 0 
-88.725 41.5 0 
-88.325 41.5 0 
-87.925 41.5 0 
-87.525 41.5 0 
-90.142 42 0 
-89.8651 42 0 
-89.5882 42 0 
-89.3113 42 0 
-89.0344 42 0 
-88.7576 42 0 
-88.4807 42 0 
-88.2038 42 0 
-87.9269 42 0 
-87.65 42 0 
-90.65 42.508 0 
-90.3333 42.508 0 
-90.0167 42.508 0 
-89.7 42.508 0 
-89.3833 42.508 0 
-89.0667 42.508 0 
-88.75 42.508 0 
-88.4333 42.508 0 
-88.1167 42.508 0 
-87.8 42.508 0 
-89.3 37 0 
-89.2111 37 0 
-89.1222 37 0 
-89.0333 37 0 
-88.9444 37 0 
-88.8556 37 0 
-88.7667 37 0 
-88.6778 37 0 
-88.5889 37 0 
-88.5 37 0 
-89.5 37.5 0 
-89.3408 37.5 0 
-89.1816 37.5 0 
-89.0223 37.5 0 
-88.8631 37.5 0 
-88.7039 37.5 0 
-88.5447 37.5 0 
-88.3854 37.5 0 
-88.2262 37.5 0 
-88.067 37.5 0 
-90.05 38 0 
-89.825 38 0 
-89.6 38 0 
-89.375 38 0 
-89.15 38 0 
-88.925 38 0 
-88.7 38 0 
-88.475 38 0 
-88.25 38 0 
-88.025 38 0 
-90.267 38.5 0 
-89.9799 38.5 0 
[...]
POINT_DATA 3600
VECTORS WindVector float
-0.0263579 0.0367412 0 
-0.0257125 0.0369281 0 
-0.0250335 0.0370832 0 
-0.0243155 0.0372197 0 
-0.0235852 0.0373463 0 
-0.0229144 0.03746 0 
-0.0224104 0.0375461 0 
-0.0221783 0.037585 0 
-0.0222756 0.0375651 0 
-0.0226884 0.0374893 0 
-0.0251102 0.0385468 0 
-0.0231572 0.0400771 0 
-0.0224762 0.0402973 0 
-0.0219873 0.0390262 0 
-0.0183813 0.0386075 0 
-0.0137714 0.039325 0 
-0.0158963 0.0389112 0 
-0.0202305 0.0381851 0 
-0.0238145 0.0377413 0 
-0.0262655 0.0375195 0 
-0.0340064 0.0322244 0 
-0.0324251 0.0333632 0 
-0.0300532 0.0348906 0 
-0.0276722 0.0361619 0 
-0.0283126 0.033956 0 
-0.0308403 0.0292823 0 
-0.0296893 0.033159 0 
-0.0292745 0.0377602 0 
-0.0295271 0.0394131 0 
-0.0296095 0.039262 0 
-0.0367348 0.0299977 0 
-0.0346503 0.0323419 0 
-0.0347444 0.0321721 0 
-0.0342292 0.0324115 0 
-0.0333169 0.0330417 0 
-0.0325781 0.0348609 0 
-0.0315906 0.0415917 0 
-0.029664 0.0434121 0 
-0.0258508 0.0416876 0 
-0.0288137 0.0400491 0 
-0.0449499 0.0203017 0 
-0.0422424 0.0234729 0 
-0.0400701 0.0263676 0 
-0.0393156 0.0280356 0 
-0.0375733 0.0316461 0 
-0.0356205 0.0354964 0 
-0.0344692 0.0364722 0 
-0.0288123 0.0400893 0 
-0.0275458 0.0408295 0 
-0.0319635 0.0395117 0 
-0.0541677 0.00846304 0 
-0.0536052 0.00825353 0 
-0.0474681 0.0153721 0 
-0.0467813 0.0183774 0 
-0.0473989 0.0198429 0 
-0.0422345 0.0284498 0 
-0.0404809 0.0364502 0 
-0.0392701 0.0413941 0 
-0.037648 0.0410244 0 
-0.038016 0.0397787 0 
-0.0521168 0.0156217 0 
-0.0564168 0.00632184 0 
-0.0535738 0.0075006 0 
-0.0453304 0.00866087 0 
-0.0470646 0.0118393 0 
-0.0468324 0.017757 0 
-0.045832 0.0362798 0 
-0.0592653 0.0684178 0 
-0.0357958 0.0434039 0 
-0.0416852 0.0413507 0 
-0.0527359 0.024282 0 
-0.0545667 0.0279889 0 
-0.0513596 0.0199873 0 
-0.0451238 -0.000137141 0 
-0.0470531 -0.0186203 0 
-0.0511831 -0.000571858 0 
-0.0493757 0.0299076 0 
-0.0489055 0.0449421 0 
-0.0491355 0.0455291 0 
-0.0483103 0.042876 0 
-0.0599414 0.0486462 0 
-0.0594947 0.0468087 0 
-0.0483878 0.00817454 0 
-0.0435785 -0.0168571 0 
-0.0512742 -0.0086471 0 
-0.0531425 0.015734 0 
-0.0575194 0.0372472 0 
-0.0714982 0.056555 0 
-0.0656724 0.0524294 0 
-0.055302 0.0449381 0 
-0.0527924 0.0321209 0 
-0.0530165 0.0320132 0 
-0.0501884 0.023797 0 
-0.0484748 0.0171345 0 
-0.0514363 0.0194892 0 
-0.0603651 0.0309285 0 
-0.0639352 0.0408401 0 
-0.0588107 0.0490167 0 
-0.0580905 0.0480416 0 
-0.0552221 0.0445204 0 
-0.0442336 0.0313207 0 
-0.0405335 0.0355525 0 
-0.0410655 0.0372988 0 
-0.053203 0.0369135 0 
-0.0701563 0.0402351 0 
-0.0730328 0.0429912 0 
-0.0554345 0.0581236 0 
-0.0541806 0.0581193 0 
-0.055172 0.0504592 0 
-0.0545967 0.0457844 0 
-0.0466009 0.0306673 0 
-0.0442369 0.0330734 0 
-0.0399525 0.0370911 0 
-0.0361611 0.0402417 0 
-0.0422438 0.0390494 0 
-0.0526991 0.0392091 0 
-0.0570269 0.0420762 0 
-0.0563836 0.0453111 0 
-0.0551206 0.0458686 0 
-0.0541127 0.044112 0 
0.0201755 -0.0519607 0 
0.0203683 -0.0514846 0 
0.0205091 -0.0507107 0 
0.0206199 -0.049712 0 
0.0207188 -0.0486084 0 
0.0208089 -0.0475457 0 
0.0208754 -0.0466596 0 
0.0208949 -0.046036 0 
0.020851 -0.0456898 0 
0.0207454 -0.0455729 0 
0.0229227 -0.0629462 0 
0.0252765 -0.0673174 0 
0.0255326 -0.0670048 0 
0.023191 -0.0582632 0 
0.0220899 -0.0466 0 
0.0229885 -0.0398173 0 
0.0223942 -0.0416594 0 
0.0213551 -0.0447086 0 
0.0207544 -0.0467116 0 
0.0205068 -0.0476903 0 
0.012102 -0.0524002 0 
0.0137219 -0.0551486 0 
0.0165192 -0.0575197 0 
0.0185678 -0.0600215 0 
0.0141 -0.0561468 0 
0.00505408 -0.0485446 0 
0.0119981 -0.0502926 0 
0.0195011 -0.0524851 0 
0.0220795 -0.0533728 0 
0.0221856 -0.0529228 0 
0.00787135 -0.0510785 0 
0.00611186 -0.0654558 0 
0.00781546 -0.0620865 0 
0.0133997 -0.0547496 0 
0.0150755 -0.0546977 0 
0.0169587 -0.0551366 0 
0.0248054 -0.0574335 0 
0.0266683 -0.0589177 0 
0.024446 -0.059252 0 
0.023156 -0.0552207 0 
0.000414376 -0.0159949 0 
0.00437518 -0.0287964 0 
0.00766353 -0.0406704 0 
0.0112969 -0.0458189 0 
0.0181617 -0.0559351 0 
0.0260623 -0.0761218 0 
0.0228555 -0.0608652 0 
0.0237239 -0.0582894 0 
0.0240092 -0.0578838 0 
0.0231822 -0.0527358 0 
-0.0165369 0.0167668 0 
-0.0160588 0.0144843 0 
-0.00339287 -0.00668964 0 
0.00473465 -0.0283756 0 
0.00818478 -0.0392172 0 
0.0169989 -0.0443041 0 
0.0226209 -0.0525519 0 
0.0256267 -0.0561501 0 
0.0256845 -0.0532459 0 
0.0244321 -0.048782 0 
-0.00942658 0.0167703 0 
-0.0208298 0.0258221 0 
-0.0178903 0.0217254 0 
-0.0233443 0.0190778 0 
0.00231702 -0.0118408 0 
0.0158951 -0.0254217 0 
0.0247048 -0.0473664 0 
0.0317955 -0.0984408 0 
0.031194 -0.0554799 0 
0.026975 -0.0469329 0 
-0.0069369 0.0287699 0 
-0.00987472 0.0413721 0 
-0.00711821 0.0337096 0 
0.00178169 0.0203904 0 
0.0360688 0.00949487 0 
0.0347917 -0.00859844 0 
0.0276843 -0.0320792 0 
0.0328515 -0.0508146 0 
0.0341207 -0.0484779 0 
0.0290079 -0.0409138 0 
-0.0145576 0.0747555 0 
-0.0132678 0.0737458 0 
0.0112503 0.0289873 0 
0.0306169 0.0197855 0 
0.0367863 0.00413864 0 
0.0247652 -0.00324104 0 
0.0271962 -0.0201761 0 
0.0544918 -0.0550788 0 
0.0451421 -0.0459911 0 
0.029276 -0.031264 0 
-0.00293278 0.0376184 0 
-0.00246154 0.0412157 0 
0.00400911 0.0302683 0 
0.0102396 0.0212615 0 
0.0100389 0.0185521 0 
-0.000871095 0.0247831 0 
-0.00528682 0.0280285 0 
0.00652175 0.0159119 0 
0.0165964 -0.00246359 0 
0.0184421 -0.0105617 0 
0.000696614 0.0283445 0 
-0.00238473 0.0333127 0 
-0.00412886 0.0351627 0 
-0.00749046 0.0347985 0 
-0.0210138 0.0462461 0 
-0.0244213 0.0508123 0 
-0.0117836 0.05242 0 
-0.0091676 0.0488507 0 
-0.000626187 0.028179 0 
0.00631111 0.0122285 0 
0.0019519 0.0220844 0 
0.000212675 0.0260982 0 
-0.00301419 0.0328619 0 
-0.00567795 0.0384697 0 
-0.00504689 0.0348722 0 
-0.00601831 0.0320495 0 
-0.00680094 0.0325356 0 
-0.00503945 0.0317732 0 
-0.00182642 0.0269226 0 
0.00235601 0.0182387 0 
0.00887748 -0.0639902 0 
0.00887509 -0.0626911 0 
0.00867757 -0.0611038 0 
0.00833688 -0.0592892 0 
0.00792322 -0.0573872 0 
0.00750583 -0.0556104 0 
0.00713281 -0.0541994 0 
0.00682005 -0.0533456 0 
0.00655474 -0.0531217 0 
0.00631004 -0.0534654 0 
0.0170017 -0.0727988 0 
0.0209266 -0.0742449 0 
0.0210604 -0.0729886 0 
0.0153942 -0.0640678 0 
0.00894325 -0.0493353 0 
0.00606858 -0.0383155 0 
0.00658516 -0.0422447 0 
0.00721722 -0.0497721 0 
0.0073805 -0.0557179 0 
0.00712027 -0.0595541 0 
0.00373828 -0.0797377 0 
0.00662091 -0.078884 0 
0.0103758 -0.0754812 0 
0.0140306 -0.0720754 0 
0.0115539 -0.0652276 0 
0.00539279 -0.0557451 0 
0.00822192 -0.060198 0 
0.0120019 -0.065724 0 
0.0131408 -0.0685617 0 
0.0117918 -0.0694725 0 
0.000639993 -0.086336 0 
0.00651438 -0.0996831 0 
0.00610468 -0.0944444 0 
0.00747632 -0.0791802 0 
0.0105829 -0.0737021 0 
0.0125387 -0.0724227 0 
0.0184139 -0.0748805 0 
0.0199754 -0.0771328 0 
0.0165828 -0.0799962 0 
0.0116351 -0.0759451 0 
-0.0149854 -0.0739352 0 
-0.00959827 -0.0763805 0 
-0.00379363 -0.0798025 0 
0.000597514 -0.0795751 0 
0.0117977 -0.0841152 0 
0.0326787 -0.101175 0 
0.0172275 -0.0851228 0 
0.0144617 -0.0812835 0 
0.0135396 -0.0806211 0 
0.00718549 -0.0751642 0 
-0.0211537 -0.0827051 0 
-0.019548 -0.0836627 0 
-0.018431 -0.0723726 0 
-0.00832953 -0.0716385 0 
-0.00152759 -0.0732585 0 
0.000179821 -0.0764404 0 
0.00743811 -0.082782 0 
0.0119592 -0.0862715 0 
0.00810147 -0.0804906 0 
0.000524786 -0.0725072 0 
-0.0348571 -0.0629834 0 
-0.0243596 -0.0833699 0 
-0.0257974 -0.0783093 0 
-0.0234409 -0.0735252 0 
-0.0208204 -0.0662714 0 
-0.021035 -0.063996 0 
-0.00148892 -0.0811943 0 
0.04898 -0.147239 0 
0.0181757 -0.0876622 0 
-0.00606195 -0.0682273 0 
-0.0565132 -0.0389056 0 
-0.0684554 -0.0292213 0 
-0.060396 -0.0370916 0 
-0.0463182 -0.052969 0 
-0.0685858 -0.0407529 0 
-0.0612058 -0.0424901 0 
-0.032159 -0.0547712 0 
-0.01925 -0.0620605 0 
-0.0295423 -0.0499343 0 
-0.0321105 -0.0459509 0 
-0.109314 0.0111079 0 
-0.108885 0.0104658 0 
-0.0706146 -0.0266074 0 
-0.0685179 -0.0346717 0 
-0.0760109 -0.0307522 0 
-0.0700375 -0.0221695 0 
-0.0746158 -0.0106444 0 
-0.114124 0.0192151 0 
-0.0957634 0.00619169 0 
-0.0634109 -0.0170997 0 
-0.0773122 -0.0127068 0 
-0.0821461 -0.00799033 0 
-0.0758654 -0.0110339 0 
-0.0738538 -0.00984324 0 
-0.0807219 -0.000849132 0 
-0.10117 0.0235544 0 
-0.110917 0.03856 0 
-0.0982132 0.0315229 0 
-0.0881829 0.0158043 0 
-0.0736646 -0.000865557 0 
-0.0781375 0.0160323 0 
-0.0826984 0.0339697 0 
-0.0865788 0.0406191 0 
-0.100661 0.0402475 0 
-0.133135 0.0621186 0 
-0.140281 0.0697734 0 
-0.108349 0.0619207 0 
-0.104012 0.0574425 0 
-0.0940615 0.0353208 0 
-0.0831611 0.0169696 0 
-0.0714561 0.00136561 0 
-0.0760773 0.0151138 0 
-0.0814923 0.0346339 0 
-0.0848251 0.0490762 0 
-0.0877115 0.0417944 0 
-0.0963484 0.0364354 0 
-0.100905 0.0375912 0 
-0.0980091 0.0364444 0 
-0.0922059 0.0303102 0 
-0.0845638 0.0195997 0 
0.0263356 -0.0912473 0 
0.0255506 -0.08937 0 
0.0248358 -0.0872022 0 
0.0241695 -0.0847934 0 
0.0235541 -0.0822994 0 
0.0230351 -0.0799907 0 
0.0226996 -0.0782037 0 
0.0226462 -0.0772306 0 
0.0229407 -0.0772059 0 
0.0235867 -0.0780641 0 
0.0212371 -0.0976597 0 
0.018044 -0.096815 0 
0.0171278 -0.0948874 0 
0.0177088 -0.0861229 0 
0.0166728 -0.0689604 0 
0.0143138 -0.0541754 0 
0.0158543 -0.0600541 0 
0.0197345 -0.0718546 0 
0.0238023 -0.0816635 0 
0.0273015 -0.0884003 0 
0.0341811 -0.116693 0 
0.0304875 -0.113865 0 
0.0260628 -0.106426 0 
0.0202062 -0.0989923 0 
0.0130647 -0.091132 0 
0.00365954 -0.0820182 0 
0.0132164 -0.0880519 0 
0.022837 -0.096516 0 
0.0269841 -0.101192 0 
0.0298749 -0.102949 0 
0.0375997 -0.127084 0 
0.0245064 -0.14607 0 
0.0275065 -0.138003 0 
0.0328775 -0.113629 0 
0.029479 -0.104334 0 
0.0275373 -0.103324 0 
0.0284319 -0.109968 0 
0.0277373 -0.11261 0 
0.0284965 -0.113366 0 
0.0344347 -0.111524 0 
0.0677338 -0.105652 0 
0.0582795 -0.110319 0 
0.0499204 -0.114955 0 
0.0488796 -0.112817 0 
0.0488743 -0.114539 0 
0.0488401 -0.125917 0 
0.0448661 -0.117217 0 
0.0363172 -0.115733 0 
0.035372 -0.115853 0 
0.0440189 -0.114806 0 
0.0908885 -0.0993132 0 
0.0888435 -0.0992873 0 
0.0754229 -0.0980918 0 
0.0667754 -0.0897678 0 
0.0639 -0.0851757 0 
0.0619787 -0.108538 0 
0.0622365 -0.121877 0 
0.0631323 -0.128345 0 
0.0609568 -0.124885 0 
0.060847 -0.120385 0 
0.0945682 -0.0973389 0 
0.0975889 -0.0980746 0 
0.0929208 -0.0969208 0 
0.0770695 -0.0915718 0 
0.0745477 -0.0901981 0 
0.0752827 -0.10093 0 
0.0772079 -0.12823 0 
0.0948993 -0.188686 0 
0.0684319 -0.132555 0 
0.0732365 -0.125354 0 
0.109279 -0.094315 0 
0.121673 -0.0932338 0 
0.110054 -0.0931503 0 
0.089237 -0.0936262 0 
0.0943567 -0.0996767 0 
0.0916115 -0.106667 0 
0.0882335 -0.121893 0 
0.0909585 -0.135783 0 
0.0933527 -0.132377 0 
0.0885633 -0.125208 0 
0.160356 -0.0896744 0 
0.159004 -0.0896917 0 
0.107836 -0.0922004 0 
0.0965415 -0.0949607 0 
0.0962962 -0.101877 0 
0.0949596 -0.106422 0 
0.105642 -0.118739 0 
0.145814 -0.14342 0 
0.130681 -0.135789 0 
0.103708 -0.122183 0 
0.120135 -0.0874912 0 
0.123268 -0.0855744 0 
0.110116 -0.0816633 0 
0.099126 -0.0784279 0 
0.094844 -0.0837022 0 
0.0917945 -0.0995558 0 
0.0946311 -0.105734 0 
0.107099 -0.100674 0 
0.108957 -0.108232 0 
0.101808 -0.110122 0 
0.0987687 -0.0378522 0 
0.097546 -0.00801735 0 
0.0967106 -0.00484111 0 
0.0929575 -0.0556137 0 
0.0863814 -0.104263 0 
0.0864918 -0.111567 0 
0.107471 -0.0777288 0 
0.108439 -0.0771677 0 
0.103381 -0.0892027 0 
0.0998024 -0.0968461 0 
0.0977216 -0.0598 0 
0.0971349 -0.0392353 0 
0.0971785 -0.00532528 0 
0.097743 0.0227685 0 
0.0961817 -0.00975189 0 
0.0939726 -0.0603268 0 
0.0947314 -0.0818103 0 
0.097606 -0.0859253 0 
0.0985279 -0.087948 0 
0.097161 -0.0916612 0 
0.00777135 0.102894 0 
0.00704651 0.102235 0 
0.0062336 0.101494 0 
0.00533626 0.100693 0 
0.00440135 0.0998842 0 
0.00353089 0.0991525 0 
0.0028666 0.0985958 0 
0.00254256 0.0982956 0 
0.00262952 0.0982873 0 
0.00310906 0.09855 0 
0.0074802 0.105532 0 
0.00630773 0.105513 0 
0.00565218 0.10476 0 
0.00395782 0.101035 0 
-0.00169853 0.095499 0 
-0.00785443 0.091618 0 
-0.00522111 0.0931356 0 
1.2915e-005 0.0964361 0 
0.0042988 0.099463 0 
0.00730056 0.101684 0 
0.00865012 0.115334 0 
0.00820153 0.113658 0 
0.00885746 0.108983 0 
0.00943199 0.103675 0 
0.0119948 0.0947913 0 
0.016393 0.0822327 0 
0.0126792 0.0922219 0 
0.00922083 0.103289 0 
0.00901671 0.107191 0 
0.0106023 0.107174 0 
0.00694424 0.121249 0 
-0.00258965 0.133139 0 
0.000781828 0.128357 0 
0.0102818 0.113842 0 
0.0131122 0.107527 0 
0.0128896 0.106612 0 
0.00823694 0.113945 0 
0.00841422 0.113065 0 
0.0143111 0.104151 0 
0.0157518 0.105951 0 
0.0210518 0.104335 0 
0.0174516 0.109272 0 
0.0136203 0.114112 0 
0.0138994 0.114843 0 
0.0138813 0.120935 0 
0.00875098 0.139093 0 
0.0144261 0.120711 0 
0.0169743 0.107618 0 
0.0179639 0.104927 0 
0.0199357 0.10843 0 
0.0244597 0.0921406 0 
0.0241066 0.0919429 0 
0.0254281 0.0981106 0 
0.0206508 0.100826 0 
0.0174007 0.10227 0 
0.0213793 0.114161 0 
0.0244029 0.12086 0 
0.0269253 0.121197 0 
0.0262763 0.116473 0 
0.0262797 0.114148 0 
0.0312434 0.098356 0 
0.0259275 0.0901709 0 
0.0285847 0.0901469 0 
0.0380231 0.0807446 0 
0.0283133 0.0955305 0 
0.0285776 0.106012 0 
0.0333781 0.124006 0 
0.0506831 0.182757 0 
0.0280873 0.113197 0 
0.0315926 0.117068 0 
0.0415038 0.106224 0 
0.0475043 0.109976 0 
0.0448526 0.103712 0 
0.0376277 0.0921575 0 
0.0382736 0.0992241 0 
0.0409236 0.104972 0 
0.0389466 0.118406 0 
0.0405011 0.127384 0 
0.0410647 0.124544 0 
0.039122 0.120678 0 
0.0665221 0.127869 0 
0.0660285 0.127122 0 
0.0430011 0.104807 0 
0.0354395 0.099475 0 
0.0423477 0.101639 0 
0.0423306 0.105908 0 
0.0477015 0.118538 0 
0.0658453 0.147 0 
0.0591582 0.138283 0 
0.0470501 0.123196 0 
0.0502752 0.111626 0 
0.0520872 0.111974 0 
0.0474847 0.10512 0 
0.0439838 0.0989419 0 
0.0429547 0.0961639 0 
0.0411672 0.0914726 0 
0.0436229 0.09333 0 
0.0534345 0.109676 0 
0.0527088 0.116459 0 
0.0479733 0.115755 0 
0.0505289 0.0914621 0 
0.0546404 0.0844407 0 
0.0550474 0.082305 0 
0.0471339 0.0842901 0 
0.0378569 0.076991 0 
0.037737 0.076471 0 
0.0604719 0.103492 0 
0.0611767 0.105915 0 
0.0540761 0.106261 0 
0.0495529 0.1081 0 
0.0467967 0.0969586 0 
0.0498651 0.0918074 0 
0.054965 0.0843901 0 
0.059221 0.0788061 0 
0.0545703 0.0829175 0 
0.0479205 0.0884066 0 
0.0469722 0.092567 0 
0.0494365 0.0978733 0 
0.0500646 0.101587 0 
0.0483623 0.103924 0 
0.0051326 0.0880778 0 
0.00438305 0.0880253 0 
0.00347263 0.0880056 0 
0.00243249 0.0880193 0 
0.0013385 0.0880632 0 
0.000307769 0.0881292 0 
-0.000527579 0.0882072 0 
-0.00106468 0.08829 0 
-0.00126847 0.0883778 0 
-0.00117804 0.0884774 0 
0.00964617 0.0878741 0 
0.0103679 0.0876118 0 
0.00974045 0.0874105 0 
0.00517974 0.0870038 0 
-0.00293369 0.0875742 0 
-0.00915681 0.0886086 0 
-0.00713543 0.0883631 0 
-0.00372426 0.0884046 0 
-0.00147226 0.0890014 0 
-0.000212457 0.0897266 0 
0.0109114 0.0963102 0 
0.0107391 0.0948504 0 
0.010242 0.0905538 0 
0.0103785 0.085684 0 
0.0111736 0.0778669 0 
0.0131958 0.0665907 0 
0.00752837 0.0772995 0 
0.000677502 0.0893239 0 
-0.00162665 0.0935747 0 
-0.00118473 0.0936418 0 
0.0126137 0.101381 0 
0.0163672 0.113267 0 
0.0146039 0.10841 0 
0.00914348 0.0933629 0 
0.00707199 0.0867285 0 
0.00446113 0.0873433 0 
-0.00460354 0.0990358 0 
-0.00655707 0.100542 0 
-0.00286632 0.0938536 0 
-0.000811061 0.0936797 0 
0.00905973 0.0838089 0 
0.0095468 0.0887554 0 
0.00985798 0.0934011 0 
0.00817711 0.0930656 0 
0.00484847 0.0942544 0 
0.00175527 0.100559 0 
0.00169372 0.0963677 0 
-0.000763186 0.0942087 0 
-0.00100741 0.0936311 0 
0.000958933 0.0948394 0 
0.00773566 0.0711086 0 
0.00754785 0.0710019 0 
0.00806077 0.077154 0 
0.00583832 0.0793539 0 
0.00421392 0.0802655 0 
0.00437826 0.0912623 0 
0.00295343 0.0993333 0 
0.00168011 0.103106 0 
0.00197009 0.100689 0 
0.0032165 0.098644 0 
0.0100947 0.0761354 0 
0.00783803 0.0686355 0 
0.00838587 0.068813 0 
0.0111013 0.0609409 0 
0.00657167 0.074445 0 
0.00525872 0.0848631 0 
0.00329497 0.103411 0 
-0.00312933 0.149393 0 
0.000580731 0.101977 0 
0.00460345 0.101822 0 
0.01362 0.0808717 0 
0.0152768 0.0819222 0 
0.0132376 0.0779895 0 
0.00777766 0.0710466 0 
0.00178932 0.0770081 0 
0.00476271 0.0828763 0 
0.00666019 0.09928 0 
0.00565005 0.11069 0 
0.0071765 0.109498 0 
0.00863048 0.104863 0 
0.0224829 0.0913117 0 
0.0220136 0.090924 0 
0.010449 0.0808882 0 
0.00295478 0.0785599 0 
0.00547283 0.0798674 0 
0.0117502 0.0874197 0 
0.0151233 0.10193 0 
0.0158185 0.130841 0 
0.0153472 0.122007 0 
0.0141825 0.106706 0 
0.0180773 0.0850443 0 
0.0187599 0.0850843 0 
0.017738 0.0823086 0 
0.0175681 0.0801456 0 
0.019752 0.0804641 0 
0.0263468 0.0816732 0 
0.0308121 0.0842221 0 
0.0296988 0.0921576 0 
0.0241791 0.098778 0 
0.0200303 0.0986235 0 
0.0298132 0.076324 0 
0.037285 0.072393 0 
0.0394425 0.0716711 0 
0.0352073 0.0758972 0 
0.037267 0.0766731 0 
0.0390332 0.0766791 0 
0.0423804 0.080528 0 
0.0412249 0.0817451 0 
0.0330452 0.0863788 0 
0.0268699 0.0900511 0 
0.0246507 0.079736 0 
0.0299473 0.0768931 0 
0.0379974 0.0724011 0 
0.0442387 0.0687725 0 
0.0396602 0.072431 0 
0.034304 0.0778003 0 
0.033293 0.0805603 0 
0.0331565 0.0824999 0 
0.031485 0.0844328 0 
0.0281528 0.0866506 0 
-0.0115355 0.0464269 0 
-0.0123953 0.0465422 0 
-0.0132581 0.0466509 0 
-0.0141321 0.0467593 0 
-0.0149907 0.0468698 0 
-0.0157585 0.0469775 0 
-0.0163218 0.0470713 0 
-0.016568 0.0471399 0 
-0.016434 0.047179 0 
-0.0159313 0.0471939 0 
-0.0141173 0.0470242 0 
-0.0164936 0.0479636 0 
-0.017387 0.0480978 0 
-0.0181605 0.0473461 0 
-0.0216838 0.0473968 0 
-0.0258002 0.0481171 0 
-0.0239416 0.0478693 0 
-0.0200438 0.0476601 0 
-0.0165145 0.0477679 0 
-0.0136291 0.0479374 0 
-0.003812 0.0427988 0 
-0.00653223 0.0431924 0 
-0.00981876 0.0439937 0 
-0.0135596 0.0444219 0 
-0.0160237 0.0414397 0 
-0.0179243 0.0357641 0 
-0.017761 0.0419105 0 
-0.0192719 0.0499217 0 
-0.0188708 0.0525804 0 
-0.0151571 0.0512923 0 
-0.0009842 0.0413315 0 
-0.00890216 0.0406037 0 
-0.00750479 0.0409058 0 
-0.00638668 0.0414044 0 
-0.0101888 0.0408851 0 
-0.0138954 0.0437982 0 
-0.0242398 0.0577164 0 
-0.0248525 0.0586999 0 
-0.0130086 0.0477251 0 
-0.00738814 0.0475632 0 
0.0166022 0.0405377 0 
0.0118037 0.0404647 0 
0.00692013 0.0403379 0 
0.0050504 0.0402194 0 
-0.00123824 0.0393231 0 
-0.0139939 0.0346362 0 
-0.00561022 0.0422567 0 
-0.00541334 0.0451923 0 
-0.00419868 0.0450594 0 
0.00282396 0.0466462 0 
0.023765 0.0384773 0 
0.0228538 0.0379388 0 
0.0223353 0.0381248 0 
0.0200986 0.0362131 0 
0.0186943 0.0352166 0 
0.0146304 0.0409365 0 
0.0160969 0.0448309 0 
0.0200743 0.0472145 0 
0.0193834 0.0472688 0 
0.0194086 0.0477007 0 
0.0323521 0.0413662 0 
0.0263787 0.0381924 0 
0.0272463 0.0374377 0 
0.0268403 0.0313294 0 
0.0266832 0.03588 0 
0.0287151 0.0409046 0 
0.032758 0.0478431 0 
0.0463675 0.0622067 0 
0.0306836 0.045779 0 
0.0324122 0.0489355 0 
0.0464312 0.045055 0 
0.0542462 0.0464115 0 
0.0481903 0.0431683 0 
0.0358174 0.0373259 0 
0.0409903 0.0418992 0 
0.0432158 0.0453186 0 
0.0441444 0.0494849 0 
0.0472278 0.052656 0 
0.0494654 0.053228 0 
0.0464448 0.0526555 0 
0.0813645 0.0543371 0 
0.0807237 0.0539967 0 
0.0505431 0.0446221 0 
0.0425054 0.04177 0 
0.0478742 0.0453358 0 
0.0544851 0.0487853 0 
0.0650101 0.05542 0 
0.0863265 0.067117 0 
0.0779263 0.063659 0 
0.0617032 0.0573592 0 
0.0603058 0.0490927 0 
0.0632158 0.0495422 0 
0.0583748 0.0478936 0 
0.0562725 0.046957 0 
0.0610956 0.0476009 0 
0.0754435 0.0484957 0 
0.0865768 0.0534348 0 
0.0896775 0.06567 0 
0.0807711 0.0636547 0 
0.0694411 0.0593973 0 
0.0647436 0.0495965 0 
0.0700511 0.0505986 0 
0.0729762 0.0508518 0 
0.0784597 0.0494641 0 
0.0932021 0.0454703 0 
0.0991182 0.0471799 0 
0.111413 0.0789948 0 
0.109517 0.0798285 0 
0.0923171 0.0690361 0 
0.0793324 0.0627421 0 
0.0595385 0.0491645 0 
0.0641058 0.0499444 0 
0.0700094 0.0509863 0 
0.0740191 0.0517084 0 
0.0744433 0.05161 0 
0.078743 0.0524679 0 
0.084373 0.0561138 0 
0.0876533 0.0614502 0 
0.0855916 0.0630563 0 
0.0789785 0.0611616 0 
-0.040662 0.0630849 0 
-0.0406368 0.0626753 0 
-0.0405945 0.062218 0 
-0.0405356 0.0617229 0 
-0.0404656 0.0612209 0 
-0.0403991 0.0607659 0 
-0.0403584 0.0604262 0 
-0.0403676 0.0602626 0 