# vtk DataFile Version 3.0
Autogenerated from october.txt by weatherdisplay
ASCII
DATASET STRUCTURED_GRID
DIMENSIONS 10 12 31
POINTS 3720 float
-89.3 37 0 
-89.2111 37 0 
-89.1222 37 0 
-89.0333 37 0 
-88.9444 37 0 
-88.8556 37 0 
-88.7667 37 0 
-88.6778 37 0 
-88.5889 37 0 
-88.5 37 0 
-89.5 37.5 0 
-89.3408 37.5 0 
-89.1816 37.5 0 
-89.0223 37.5 0 
-88.8631 37.5 0 
-88.7039 37.5 0 
-88.5447 37.5 0 
-88.3854 37.5 0 
-88.2262 37.5 0 
-88.067 37.5 0 
-90.05 38 0 
-89.825 38 0 
-89.6 38 0 
-89.375 38 0 
-89.15 38 0 
-88.925 38 0 
-88.7 38 0 
-88.475 38 0 
-88.25 38 0 
-88.025 38 0 
-90.267 38.5 0 
-89.9799 38.5 0 
-89.6928 38.5 0 
-89.4057 38.5 0 
-89.1186 38.5 0 
-88.8314 38.5 0 
-88.5443 38.5 0 
-88.2572 38.5 0 
-87.9701 38.5 0 
-87.683 38.5 0 
-90.683 39 0 
-90.3386 39 0 
-89.9941 39 0 
-89.6497 39 0 
-89.3052 39 0 
-88.9608 39 0 
-88.6163 39 0 
-88.2719 39 0 
-87.9274 39 0 
-87.583 39 0 
-91.067 39.5 0 
-90.6743 39.5 0 
-90.2817 39.5 0 
-89.889 39.5 0 
-89.4963 39.5 0 
-89.1037 39.5 0 
-88.711 39.5 0 
-88.3183 39.5 0 
-87.9257 39.5 0 
-87.533 39.5 0 
-91.467 40 0 
-91.0299 40 0 
-90.5928 40 0 
-90.1557 40 0 
-89.7186 40 0 
-89.2814 40 0 
-88.8443 40 0 
-88.4072 40 0 
-87.9701 40 0 
-87.533 40 0 
-91.367 40.5 0 
-90.9401 40.5 0 
-90.5132 40.5 0 
-90.0863 40.5 0 
-89.6594 40.5 0 
-89.2326 40.5 0 
-88.8057 40.5 0 
-88.3788 40.5 0 
-87.9519 40.5 0 
-87.525 40.5 0 
-90.933 41 0 
-90.5543 41 0 
-90.1757 41 0 
-89.797 41 0 
-89.4183 41 0 
-89.0397 41 0 
-88.661 41 0 
-88.2823 41 0 
-87.9037 41 0 
-87.525 41 0 
-91.125 41.5 0 
-90.725 41.5 0 
-90.325 41.5 0 
-89.925 41.5 0 
-89.525 41.5 0 
-89.125 41.5 0 
-88.725 41.5 0 
-88.325 41.5 0 
-87.925 41.5 0 
-87.525 41.5 0 
-90.142 42 0 
-89.8651 42 0 
-89.5882 42 0 
-89.3113 42 0 
-89.0344 42 0 
-88.7576 42 0 
-88.4807 42 0 
-88.2038 42 0 
-87.9269 42 0 
-87.65 42 0 
-90.65 42.508 0 
-90.3333 42.508 0 
-90.0167 42.508 0 
-89.7 42.508 0 
-89.3833 42.508 0 
-89.0667 42.508 0 
-88.75 42.508 0 
-88.4333 42.508 0 
-88.1167 42.508 0 
-87.8 42.508 0 
-89.3 37 0 
-89.2111 37 0 
-89.1222 37 0 
-89.0333 37 0 
-88.9444 37 0 
-88.8556 37 0 
-88.7667 37 0 
-88.6778 37 0 
-88.5889 37 0 
-88.5 37 0 
-89.5 37.5 0 
-89.3408 37.5 0 
-89.1816 37.5 0 
-89.0223 37.5 0 
-88.8631 37.5 0 
-88.7039 37.5 0 
-88.5447 37.5 0 
-88.3854 37.5 0 
-88.2262 37.5 0 
-88.067 37.5 0 
-90.05 38 0 
-89.825 38 0 
-89.6 38 0 
-89.375 38 0 
-89.15 38 0 
-88.925 38 0 
-88.7 38 0 
-88.475 38 0 
-88.25 38 0 
-88.025 38 0 
-90.267 38.5 0 
-89.9799 38.5 0 
-89.6928 38.5 0 
-89.4057 38.5 0 
-89.1186 38.5 0 
-88.8314 38.5 0 
-88.5443 38.5 0 
-88.2572 38.5 0 
-87.9701 38.5 0 
-87.683 38.5 0 
-90.683 39 0 
-90.3386 39 0 
-89.9941 39 0 
-89.6497 39 0 
-89.3052 39 0 
-88.9608 39 0 
-88.6163 39 0 
-88.2719 39 0 
-87.9274 39 0 
-87.583 39 0 
-91.067 39.5 0 
-90.6743 39.5 0 
-90.2817 39.5 0 
-89.889 39.5 0 
-89.4963 39.5 0 
-89.1037 39.5 0 
-88.711 39.5 0 
-88.3183 39.5 0 
-87.9257 39.5 0 
-87.533 39.5 0 
-91.467 40 0 
-91.0299 40 0 
-90.5928 40 0 
-90.1557 40 0 
-89.7186 40 0 
-89.2814 40 0 
-88.8443 40 0 
-88.4072 40 0 
-87.9701 40 0 
-87.533 40 0 
-91.367 40.5 0 
-90.9401 40.5 0 
-90.5132 40.5 0 
-90.0863 40.5 0 
-89.6594 40.5 0 
-89.2326 40.5 0 
-88.8057 40.5 0 
-88.3788 40.5 0 
-87.9519 40.5 0 
-87.525 40.5 0 
-90.933 41 0 
-90.5543 41 0 
-90.1757 41 0 
-89.797 41 0 
-89.4183 41 0 
-89.0397 41 0 
-88.661 41 0 
-88.2823 41 0 
-87.9037 41 0 
-87.525 41 0 
-91.125 41.5 0 
-90.725 41.5 0 
-90.325 41.5 0 
-89.925 41.5 0 
-89.525 41.5 0 
-89.125 41.5 0 
-88.725 41.5 0 
-88.325 41.5 0 
-87.925 41.5 0 
-87.525 41.5 0 
-90.142 42 0 
-89.8651 42 0 
-89.5882 42 0 
-89.3113 42 0 
-89.0344 42 0 
-88.7576 42 0 
-88.4807 42 0 
-88.2038 42 0 
-87.9269 42 0 
-87.65 42 0 
-90.65 42.508 0 
-90.3333 42.508 0 
-90.0167 42.508 0 
-89.7 42.508 0 
-89.3833 42.508 0 
-89.0667 42.508 0 
-88.75 42.508 0 
-88.4333 42.508 0 
-88.1167 42.508 0 
-87.8 42.508 0 
-89.3 37 0 
-89.2111 37 0 
-89.1222 37 0 
-89.0333 37 0 
-88.9444 37 0 
-88.8556 37 0 
-88.7667 37 0 
-88.6778 37 0 
-88.5889 37 0 
-88.5 37 0 
-89.5 37.5 0 
-89.3408 37.5 0 
-89.1816 37.5 0 
-89.0223 37.5 0 
-88.8631 37.5 0 
-88.7039 37.5 0 
-88.5447 37.5 0 
-88.3854 37.5 0 
-88.2262 37.5 0 
-88.067 37.5 0 
-90.05 38 0 
-89.825 38 0 
-89.6 38 0 
-89.375 38 0 
-89.15 38 0 
-88.925 38 0 
-88.7 38 0 
-88.475 38 0 
-88.25 38 0 
-88.025 38 0 
-90.267 38.5 0 
-89.9799 38.5 0 
-89.6928 38.5 0 
-89.4057 38.5 0 
-89.1186 38.5 0 
-88.8314 38.5 0 
-88.5443 38.5 0 
-88.2572 38.5 0 
-87.9701 38.5 0 
-87.683 38.5 0 
-90.683 39 0 
-90.3386 39 0 
-89.9941 39 0 
-89.6497 39 0 
-89.3052 39 0 
-88.9608 39 0 
-88.6163 39 0 
-88.2719 39 0 
-87.9274 39 0 
-87.583 39 0 
-91.067 39.5 0 
-90.6743 39.5 0 
-90.2817 39.5 0 
-89.889 39.5 0 
-89.4963 39.5 0 
-89.1037 39.5 0 
-88.711 39.5 0 
-88.3183 39.5 0 
-87.9257 39.5 0 
-87.533 39.5 0 
-91.467 40 0 
-91.0299 40 0 
-90.5928 40 0 
-90.1557 40 0 
-89.7186 40 0 
-89.2814 40 0 
-88.8443 40 0 
-88.4072 40 0 
-87.9701 40 0 
-87.533 40 0 
-91.367 40.5 0 
-90.9401 40.5 0 
-90.5132 40.5 0 
-90.0863 40.5 0 
-89.6594 40.5 0 
-89.2326 40.5 0 
-88.8057 40.5 0 
-88.3788 40.5 0 
-87.9519 40.5 0 
-87.525 40.5 0 
-90.933 41 0 
-90.5543 41 0 
-90.1757 41 0 
-89.797 41 0 
-89.4183 41 0 
-89.0397 41 0 
-88.661 41 0 
-88.2823 41 0 
-87.9037 41 0 
-87.525 41 0 
-91.125 41.5 0 
-90.725 41.5 0 
-90.325 41.5 0 
-89.925 41.5 0 
-89.525 41.5 0 
-89.125 41.5 0 
-88.725 41.5 0 
-88.325 41.5 0 
-87.925 41.5 0 
-87.525 41.5 0 
-90.142 42 0 
-89.8651 42 0 
-89.5882 42 0 
-89.3113 42 0 
-89.0344 42 0 
-88.7576 42 0 
-88.4807 42 0 
-88.2038 42 0 
-87.9269 42 0 
-87.65 42 0 
-90.65 42.508 0 
-90.3333 42.508 0 
-90.0167 42.508 0 
-89.7 42.508 0 
-89.3833 42.508 0 
-89.0667 42.508 0 
-88.75 42.508 0 
-88.4333 42.508 0 
-88.1167 42.508 0 
-87.8 42.508 0 
-89.3 37 0 
-89.2111 37 0 
-89.1222 37 0 
-89.0333 37 0 
-88.9444 37 0 
-88.8556 37 0 
-88.7667 37 0 
-88.6778 37 0 
-88.5889 37 0 
-88.5 37 0 
-89.5 37.5 0 
-89.3408 37.5 0 
-89.1816 37.5 0 
-89.0223 37.5 0 
-88.8631 37.5 0 
-88.7039 37.5 0 
-88.5447 37.5 0 
-88.3854 37.5 0 
-88.2262 37.5 0 
-88.067 37.5 0 
-90.05 38 0 
-89.825 38 0 
-89.6 38 0 
-89.375 38 0 
-89.15 38 0 
-88.925 38 0 
-88.7 38 0 
-88.475 38 0 
-88.25 38 0 
-88.025 38 0 
-90.267 38.5 0 
-89.9799 38.5 0 
-89.6928 38.5 0 
-89.4057 38.5 0 
-89.1186 38.5 0 
-88.8314 38.5 0 
-88.5443 38.5 0 
-88.2572 38.5 0 
-87.9701 38.5 0 
-87.683 38.5 0 
-90.683 39 0 
-90.3386 39 0 
-89.9941 39 0 
-89.6497 39 0 
-89.3052 39 0 
-88.9608 39 0 
-88.6163 39 0 
-88.2719 39 0 
-87.9274 39 0 
-87.583 39 0 
-91.067 39.5 0 
-90.6743 39.5 0 
-90.2817 39.5 0 
-89.889 39.5 0 
-89.4963 39.5 0 
-89.1037 39.5 0 
-88.711 39.5 0 
-88.3183 39.5 0 
-87.9257 39.5 0 
-87.533 39.5 0 
-91.467 40 0 
-91.0299 40 0 
-90.5928 40 0 
-90.1557 40 0 
-89.7186 40 0 
-89.2814 40 0 
-88.8443 40 0 
-88.4072 40 0 
-87.9701 40 0 
-87.533 40 0 
-91.367 40.5 0 
-90.9401 40.5 0 
-90.5132 40.5 0 
-90.0863 40.5 0 
-89.6594 40.5 0 
-89.2326 40.5 0 
-88.8057 40.5 0 
-88.3788 40.5 0 
-87.9519 40.5 0 
-87.525 40.5 0 
-90.933 41 0 
-90.5543 41 0 
-90.1757 41 0 
-89.797 41 0 
-89.4183 41 0 
-89.0397 41 0 
-88.661 41 0 
-88.2823 41 0 
-87.9037 41 0 
-87.525 41 0 
-91.125 41.5 0 
-90.725 41.5 0 
-90.325 41.5 0 
-89.925 41.5 0 
-89.525 41.5 0 
-89.125 41.5 0 
-88.725 41.5 0 
-88.325 41.5 0 
-87.925 41.5 0 
-87.525 41.5 0 
-90.142 42 0 
-89.8651 42 0 
-89.5882 42 0 
-89.3113 42 0 
-89.0344 42 0 
-88.7576 42 0 
-88.4807 42 0 
-88.2038 42 0 
-87.9269 42 0 
-87.65 42 0 
-90.65 42.508 0 
-90.3333 42.508 0 
-90.0167 42.508 0 
-89.7 42.508 0 
-89.3833 42.508 0 
-89.0667 42.508 0 
-88.75 42.508 0 
-88.4333 42.508 0 
-88.1167 42.508 0 
-87.8 42.508 0 
-89.3 37 0 
-89.2111 37 0 
-89.1222 37 0 
-89.0333 37 0 
-88.9444 37 0 
-88.8556 37 0 
-88.7667 37 0 
-88.6778 37 0 
-88.5889 37 0 
-88.5 37 0 
-89.5 37.5 0 
-89.3408 37.5 0 
-89.1816 37.5 0 
-89.0223 37.5 0 
-88.8631 37.5 0 
-88.7039 37.5 0 
-88.5447 37.5 0 
-88.3854 37.5 0 
-88.2262 37.5 0 
-88.067 37.5 0 
-90.05 38 0 
-89.825 38 0 
-89.6 38 0 
-89.375 38 0 
-89.15 38 0 
-88.925 38 0 
-88.7 38 0 
-88.475 38 0 
-88.25 38 0 
-88.025 38 0 
-90.267 38.5 0 
-89.9799 38.5 0 
-89.6928 38.5 0 
-89.4057 38.5 0 
-89.1186 38.5 0 
-88.8314 38.5 0 
-88.5443 38.5 0 
-88.2572 38.5 0 
-87.9701 38.5 0 
-87.683 38.5 0 
-90.683 39 0 
-90.3386 39 0 
-89.9941 39 0 
-89.6497 39 0 
-89.3052 39 0 
-88.9608 39 0 
-88.6163 39 0 
-88.2719 39 0 
-87.9274 39 0 
-87.583 39 0 
-91.067 39.5 0 
-90.6743 39.5 0 
-90.2817 39.5 0 
-89.889 39.5 0 
-89.4963 39.5 0 
-89.1037 39.5 0 
-88.711 39.5 0 
-88.3183 39.5 0 
-87.9257 39.5 0 
-87.533 39.5 0 
-91.467 40 0 
-91.0299 40 0 
-90.5928 40 0 
-90.1557 40 0 
-89.7186 40 0 
-89.2814 40 0 
-88.8443 40 0 
-88.4072 40 0 
-87.9701 40 0 
-87.533 40 0 
-91.367 40.5 0 
-90.9401 40.5 0 
-90.5132 40.5 0 
-90.0863 40.5 0 
-89.6594 40.5 0 
-89.2326 40.5 0 
-88.8057 40.5 0 
-88.3788 40.5 0 
-87.9519 40.5 0 
-87.525 40.5 0 
-90.933 41 0 
-90.5543 41 0 
-90.1757 41 0 
-89.797 41 0 
-89.4183 41 0 
-89.0397 41 0 
-88.661 41 0 
-88.2823 41 0 
-87.9037 41 0 
-87.525 41 0 
-91.125 41.5 0 
-90.725 41.5 0 
-90.325 41.5 0 
-89.925 41.5 0 
-89.525 41.5 0 
-89.125 41.5 0 
-88.725 41.5 0 
-88.325 41.5 0 
-87.925 41.5 0 
-87.525 41.5 0 
-90.142 42 0 
-89.8651 42 0 
-89.5882 42 0 
-89.3113 42 0 
-89.0344 42 0 
-88.7576 42 0 
-88.4807 42 0 
-88.2038 42 0 
-87.9269 42 0 
-87.65 42 0 
-90.65 42.508 0 
-90.3333 42.508 0 
-90.0167 42.508 0 
-89.7 42.508 0 
-89.3833 42.508 0 
-89.0667 42.508 0 
-88.75 42.508 0 
-88.4333 42.508 0 
-88.1167 42.508 0 
-87.8 42.508 0 
-89.3 37 0 
-89.2111 37 0 
-89.1222 37 0 
-89.0333 37 0 
-88.9444 37 0 
-88.8556 37 0 
-88.7667 37 0 
-88.6778 37 0 
-88.5889 37 0 
-88.5 37 0 
-89.5 37.5 0 
-89.3408 37.5 0 
-89.1816 37.5 0 
-89.0223 37.5 0 
-88.8631 37.5 0 
-88.7039 37.5 0 
-88.5447 37.5 0 
-88.3854 37.5 0 
-88.2262 37.5 0 
-88.067 37.5 0 
-90.05 38 0 
-89.825 38 0 
-89.6 38 0 
-89.375 38 0 
-89.15 38 0 
-88.925 38 0 
-88.7 38 0 
-88.475 38 0 
-88.25 38 0 
-88.025 38 0 
-90.267 38.5 0 
-89.9799 38.5 0 
[...]
POINT_DATA 3720
VECTORS WindVector float
0.0478262 0.0235774 0 
0.0465945 0.0235779 0 
0.0452467 0.0236554 0 
0.0437851 0.0237978 0 
0.04228 0.0239823 0 
0.0408911 0.0241765 0 
0.0398445 0.0243449 0 
0.0393569 0.0244598 0 
0.0395448 0.0245108 0 
0.0403803 0.0245065 0 
0.0469935 0.0215681 0 
0.0443302 0.0207188 0 
0.0430699 0.0206516 0 
0.0406383 0.0218021 0 
0.0320123 0.0241866 0 
0.022349 0.0262599 0 
0.0266559 0.0255312 0 
0.0354895 0.0242911 0 
0.0429556 0.0235051 0 
0.0482484 0.023149 0 
0.0576717 0.0283697 0 
0.0557942 0.0266192 0 
0.0533487 0.023506 0 
0.0504648 0.0203978 0 
0.0506153 0.0172951 0 
0.052644 0.0135856 0 
0.0519829 0.0170465 0 
0.0523742 0.0206475 0 
0.0540725 0.021401 0 
0.0564131 0.0207342 0 
0.0597141 0.0321142 0 
0.0532109 0.0349146 0 
0.0552483 0.0324741 0 
0.0606635 0.0223644 0 
0.0617089 0.0152975 0 
0.0608046 0.0147567 0 
0.056819 0.0211597 0 
0.0570157 0.0192932 0 
0.0626229 0.00968137 0 
0.0643777 0.0149748 0 
0.0721575 0.03157 0 
0.0692475 0.0322913 0 
0.0669484 0.0322983 0 
0.0686087 0.0288002 0 
0.0722074 0.0144396 0 
0.076793 -0.011066 0 
0.0719039 0.00953736 0 
0.0682426 0.0114495 0 
0.0682273 0.0110124 0 
0.0709606 0.019363 0 
0.0793769 0.0273591 0 
0.0787521 0.0275286 0 
0.0754942 0.0338265 0 
0.0781111 0.0407382 0 
0.0808106 0.0435223 0 
0.0798174 0.0294783 0 
0.0840419 0.028165 0 
0.0878376 0.0314181 0 
0.0848305 0.0304399 0 
0.0816374 0.0306255 0 
0.0805133 0.0336276 0 
0.0812897 0.0269026 0 
0.078733 0.0292525 0 
0.0658011 0.0322727 0 
0.0777395 0.0404902 0 
0.0839772 0.0407269 0 
0.0948383 0.0412822 0 
0.132049 0.0601782 0 
0.0949097 0.0357837 0 
0.0896322 0.0381948 0 
0.0850641 0.0410544 0 
0.0888135 0.0439294 0 
0.0838564 0.0422501 0 
0.0754716 0.0385308 0 
0.0878033 0.0420042 0 
0.092379 0.0425331 0 
0.0943499 0.0455018 0 
0.10068 0.0475644 0 
0.0984566 0.0477105 0 
0.09303 0.0460404 0 
0.101496 0.0553236 0 
0.101077 0.0552402 0 
0.0849392 0.0459268 0 
0.0830939 0.0442294 0 
0.0912836 0.0443101 0 
0.0889753 0.0484853 0 
0.0939778 0.0552726 0 
0.111806 0.0686333 0 
0.105647 0.0636811 0 
0.0943165 0.054277 0 
0.0874837 0.049017 0 
0.0881267 0.0504838 0 
0.082922 0.0499714 0 
0.078785 0.0504514 0 
0.0786211 0.0522534 0 
0.0789578 0.0563943 0 
0.0801477 0.0615665 0 
0.0853922 0.0674516 0 
0.0894714 0.0637035 0 
0.0885946 0.0578296 0 
0.066455 0.0581238 0 
0.0575076 0.0635627 0 
0.0559248 0.0651142 0 
0.0666254 0.0618013 0 
0.073169 0.0612457 0 
0.0742898 0.0631178 0 
0.0775796 0.079563 0 
0.0783644 0.0792618 0 
0.0808292 0.0694262 0 
0.0827166 0.0625573 0 
0.0722011 0.053637 0 
0.0661545 0.0578422 0 
0.0565841 0.0638863 0 
0.0488986 0.0684352 0 
0.0567857 0.0653892 0 
0.0686522 0.0622824 0 
0.0742909 0.0632842 0 
0.0769448 0.0656011 0 
0.0785488 0.065203 0 
0.0798512 0.0620549 0 
-0.025145 0.0160547 0 
-0.0250087 0.0164573 0 
-0.0247557 0.0169202 0 
-0.024413 0.0174244 0 
-0.0240238 0.0179334 0 
-0.0236394 0.0184 0 
-0.0233052 0.0187796 0 
-0.0230464 0.019045 0 
-0.0228619 0.0191947 0 
-0.0227288 0.0192488 0 
-0.0297811 0.0137402 0 
-0.0313593 0.012852 0 
-0.0312873 0.0131518 0 
-0.0282783 0.016073 0 
-0.0239583 0.0196871 0 
-0.0212231 0.0214465 0 
-0.0219824 0.02113 0 
-0.0231215 0.0207742 0 
-0.0236158 0.020632 0 
-0.0235061 0.0205294 0 
-0.0269478 0.0162533 0 
-0.0280282 0.0168143 0 
-0.0288137 0.0163887 0 
-0.0299832 0.0161937 0 
-0.0302547 0.0191699 0 
-0.0302661 0.0240355 0 
-0.0292363 0.0232689 0 
-0.0291278 0.0241346 0 
-0.0287501 0.0246253 0 
-0.0267503 0.0236195 0 
-0.0275899 0.0162909 0 
-0.0343829 0.0237514 0 
-0.0325322 0.0218982 0 
-0.0285218 0.0179669 0 
-0.0291562 0.0190159 0 
-0.0298717 0.0214743 0 
-0.0329724 0.0277026 0 
-0.0325603 0.0286452 0 
-0.0261125 0.0243008 0 
-0.0228896 0.0228817 0 
-0.0162797 -0.00288461 0 
-0.0200858 0.00427619 0 
-0.0240403 0.0103685 0 
-0.0252958 0.0121843 0 
-0.028536 0.0134744 0 
-0.0396942 0.012668 0 
-0.0276414 0.0181614 0 
-0.0227808 0.0226226 0 
-0.0211678 0.0231424 0 
-0.0167591 0.0224796 0 
-0.0119774 -0.0245447 0 
-0.0129315 -0.0230499 0 
-0.0156918 -0.0078007 0 
-0.0251758 0.00109506 0 
-0.0307158 0.00429797 0 
-0.0186211 0.0124307 0 
-0.0117781 0.0213478 0 
-0.0060496 0.0277039 0 
-0.00570825 0.0267619 0 
-0.0057692 0.0241915 0 
-0.00785084 -0.0217038 0 
-0.0110724 -0.0305066 0 
-0.0112325 -0.0254399 0 
-0.0168542 -0.0148141 0 
-0.0159616 -0.00335816 0 
-0.00741207 0.00621956 0 
0.00205611 0.0247061 0 
0.0131614 0.0603634 0 
0.00407584 0.033299 0 
0.00353754 0.0267857 0 
-0.00392205 -0.0274353 0 
-0.00405828 -0.0355941 0 
-0.00328181 -0.028207 0 
0.00113016 -0.0155072 0 
0.0250766 -0.00584486 0 
0.0228552 0.00553644 0 
0.0137092 0.0194107 0 
0.0144327 0.0322149 0 
0.0156121 0.0313438 0 
0.0128109 0.0262832 0 
-0.00277277 -0.0578616 0 
-0.0018731 -0.0568112 0 
0.0109624 -0.0221035 0 
0.0228938 -0.0132622 0 
0.0302861 -0.000527232 0 
0.0256239 0.0051374 0 
0.0271154 0.0178521 0 
0.0399086 0.0396564 0 
0.0339333 0.0342448 0 
0.0224142 0.0245886 0 
0.00377869 -0.0302802 0 
0.00574747 -0.0320876 0 
0.0123556 -0.0225353 0 
0.0205758 -0.0137971 0 
0.0275465 -0.00889719 0 
0.0373725 -0.00788396 0 
0.0421376 -0.00272377 0 
0.0375447 0.0150585 0 
0.0325821 0.0195293 0 
0.0260682 0.0183487 0 
0.0259352 -0.0182367 0 
0.0329111 -0.0208465 0 
0.0359 -0.021074 0 
0.0391863 -0.016236 0 
0.0513138 -0.0190885 0 
0.0544519 -0.0176859 0 
0.0443055 0.0167943 0 
0.0424286 0.0189821 0 
0.0363654 0.014353 0 
0.0305225 0.0132266 0 
0.0190869 -0.014904 0 
0.0250887 -0.0165491 0 
0.0324538 -0.0205732 0 
0.0373277 -0.0245146 0 
0.0362575 -0.0193739 0 
0.0369498 -0.011027 0 
0.0382039 -0.00396458 0 
0.0372054 0.0034384 0 
0.0346115 0.00741538 0 
0.0307395 0.00867102 0 
0.0522145 -0.0615685 0 
0.0515114 -0.0600145 0 
0.0506761 -0.0582115 0 
0.0497403 -0.0561968 0 
0.0487766 -0.0540992 0 
0.0478953 -0.0521485 0 
0.0472232 -0.0506349 0 
0.0468654 -0.0498136 0 
0.0468695 -0.0498046 0 
0.0472138 -0.0505545 0 
0.0552015 -0.0657508 0 
0.0566223 -0.0651527 0 
0.0560427 -0.0636818 0 
0.0508333 -0.0568301 0 
0.0434813 -0.0425541 0 
0.0386517 -0.0298734 0 
0.0404062 -0.0348758 0 
0.0441383 -0.044724 0 
0.0476103 -0.0527638 0 
0.0503429 -0.0583192 0 
0.0480403 -0.0711088 0 
0.0479953 -0.0700692 0 
0.0497185 -0.0687487 0 
0.0502631 -0.0670035 0 
0.0433474 -0.0646321 0 
0.0311785 -0.0620336 0 
0.0397967 -0.0619034 0 
0.0490756 -0.0620972 0 
0.0529189 -0.0636948 0 
0.0545133 -0.0664484 0 
0.0446296 -0.0724346 0 
0.0323556 -0.0687526 0 
0.0366913 -0.0700867 0 
0.0476685 -0.0738508 0 
0.0479614 -0.0743744 0 
0.0487383 -0.072483 0 
0.0558405 -0.0658772 0 
0.0571172 -0.0663565 0 
0.0557925 -0.0751367 0 
0.0580096 -0.0759266 0 
0.0612303 -0.0785276 0 
0.0570667 -0.0772901 0 
0.0533896 -0.0768284 0 
0.0552763 -0.0793951 0 
0.0575999 -0.086368 0 
0.0558929 -0.0987904 0 
0.059003 -0.0865038 0 
0.0588413 -0.0808648 0 
0.0591021 -0.0807219 0 
0.0632803 -0.0815504 0 
0.0665518 -0.0815843 0 
0.0651217 -0.0805726 0 
0.0631836 -0.0781012 0 
0.0657711 -0.0826868 0 
0.068433 -0.0869072 0 
0.0679104 -0.0889521 0 
0.0722052 -0.0938933 0 
0.0761993 -0.0960882 0 
0.0744691 -0.0920385 0 
0.0733662 -0.0890063 0 
0.073632 -0.084227 0 
0.0684401 -0.0826898 0 
0.0654322 -0.07848 0 
0.0450552 -0.0549989 0 
0.0647188 -0.0775957 0 
0.0739921 -0.0879062 0 
0.0839731 -0.101839 0 
0.115867 -0.15376 0 
0.0801853 -0.0945212 0 
0.0812827 -0.0939544 0 
0.0861195 -0.0906406 0 
0.0930601 -0.0947211 0 
0.0832338 -0.086358 0 
0.0668779 -0.0728841 0 
0.0823123 -0.087123 0 
0.084022 -0.091402 0 
0.0881973 -0.0983716 0 
0.0934507 -0.10331 0 
0.0931813 -0.0991352 0 
0.0893901 -0.0960039 0 
0.121138 -0.112634 0 
0.120344 -0.111944 0 
0.0895014 -0.090199 0 
0.0850667 -0.087371 0 
0.0869908 -0.0911687 0 
0.0895899 -0.0934749 0 
0.0981236 -0.0978033 0 
0.120512 -0.105097 0 
0.11218 -0.102273 0 
0.0970416 -0.0967144 0 
0.0981003 -0.0957063 0 
0.100513 -0.0965957 0 
0.0941602 -0.0905894 0 
0.0900882 -0.0864444 0 
0.0910392 -0.0888302 0 
0.0961025 -0.0981025 0 
0.0992427 -0.100913 0 
0.0988559 -0.0933697 0 
0.0993145 -0.0942434 0 
0.0954252 -0.0937903 0 
0.093575 -0.0762245 0 
0.0956306 -0.068194 0 
0.0966161 -0.0679842 0 
0.0975444 -0.085569 0 
0.102721 -0.107175 0 
0.103769 -0.110243 0 
0.0953955 -0.0850706 0 
0.0947518 -0.0838299 0 
0.0948107 -0.0885253 0 
0.0937849 -0.0905334 0 
0.0909461 -0.0814336 0 
0.0927647 -0.076097 0 
0.0954477 -0.0671811 0 
0.0974959 -0.0597073 0 
0.0966443 -0.0694795 0 
0.0962577 -0.0852869 0 
0.096154 -0.091298 0 
0.0951069 -0.0904097 0 
0.0939882 -0.089431 0 
0.0927953 -0.0895987 0 
0.0573953 0.0216412 0 
0.0567131 0.0218431 0 
0.0559011 0.0220857 0 
0.0549837 0.0223722 0 
0.0540259 0.0226892 0 
0.0531343 0.0229987 0 
0.0524357 0.023243 0 
0.0520365 0.0233649 0 
0.0519826 0.0233337 0 
0.0522469 0.0231569 0 
0.0602542 0.0219963 0 
0.0607403 0.0227729 0 
0.0601374 0.0229362 0 
0.0561813 0.0227281 0 
0.0492207 0.0246802 0 
0.0437204 0.0276389 0 
0.045757 0.0263172 0 
0.0497077 0.023832 0 
0.052889 0.0220294 0 
0.0550425 0.0209855 0 
0.058839 0.0223884 0 
0.0587819 0.0219369 0 
0.0593062 0.0205865 0 
0.0594067 0.0189354 0 
0.057116 0.013895 0 
0.0533472 0.00594931 0 
0.0549553 0.0118361 0 
0.0566812 0.0173826 0 
0.0575261 0.0188487 0 
0.0579689 0.018801 0 
0.0579621 0.0240621 0 
0.0533882 0.0286846 0 
0.055227 0.0265323 0 
0.0607015 0.019048 0 
0.0620916 0.0145553 0 
0.0613432 0.0141566 0 
0.0596493 0.0189186 0 
0.0580928 0.0189432 0 
0.0561363 0.0152919 0 
0.0583738 0.016748 0 
0.064764 0.017273 0 
0.0627375 0.0193206 0 
0.0613935 0.0209811 0 
0.0632746 0.0199751 0 
0.0696177 0.0169889 0 
0.0807734 0.0135168 0 
0.0691406 0.0161593 0 
0.0599203 0.0156053 0 
0.0582666 0.0153867 0 
0.0614024 0.0178445 0 
0.0695751 0.0113099 0 
0.0685385 0.0115696 0 
0.0644758 0.0154802 0 
0.0642584 0.0174847 0 
0.0655113 0.0179941 0 
0.069015 0.0185109 0 
0.0715869 0.0195115 0 
0.0711612 0.0202821 0 
0.068023 0.0202921 0 
0.0667898 0.0210162 0 
0.071938 0.012648 0 
0.071349 0.00967084 0 
0.0679258 0.0108409 0 
0.0519263 0.0120717 0 
0.061857 0.0165613 0 
0.0671017 0.0193524 0 
0.0753135 0.0223065 0 
0.10989 0.0284196 0 
0.0662047 0.0201187 0 
0.0696472 0.0238435 0 
0.0792882 0.0113225 0 
0.0851462 0.00839245 0 
0.0767242 0.0105399 0 
0.0618373 0.0148311 0 
0.0655857 0.0187602 0 
0.0674876 0.0209451 0 
0.0733697 0.025655 0 
0.0769541 0.0294288 0 
0.0751057 0.0315434 0 
0.0730914 0.0301333 0 
0.106832 0.00121347 0 
0.1058 0.00166177 0 
0.07505 0.0151944 0 
0.0672942 0.0191664 0 
0.0668209 0.0211761 0 
0.0686516 0.0261171 0 
0.0748044 0.0356785 0 
0.0903205 0.0563974 0 
0.0850863 0.0494799 0 
0.0759195 0.0372961 0 
0.0837851 0.0127772 0 
0.0846437 0.0127701 0 
0.0755911 0.0180401 0 
0.0676314 0.0233338 0 
0.0648177 0.0264013 0 
0.0634457 0.0290657 0 
0.0644018 0.0335538 0 
0.0701346 0.0421442 0 
0.0732371 0.0417776 0 
0.0724488 0.0374779 0 
0.0612915 0.0308064 0 
0.0551431 0.0366475 0 
0.0536476 0.0381135 0 
0.0578444 0.0336506 0 
0.0584005 0.0296957 0 
0.0586224 0.0305548 0 
0.0655898 0.0480537 0 
0.0664165 0.0484792 0 
0.0675066 0.0422228 0 
0.0686238 0.0382544 0 
0.0655116 0.0268778 0 
0.0610504 0.0312307 0 
0.0548131 0.0372114 0 
0.0501959 0.0415652 0 
0.0540324 0.0384242 0 
0.0595236 0.0346803 0 
0.0623562 0.0351726 0 
0.0643911 0.0376677 0 
0.0657579 0.0382455 0 
0.0667437 0.0367575 0 
0.0203962 -0.0256929 0 
0.0203173 -0.0252144 0 
0.0200763 -0.0245282 0 
0.0197092 -0.0236744 0 
0.0192738 -0.0227354 0 
0.0188402 -0.0218304 0 
0.0184745 -0.0210898 0 
0.018221 -0.020614 0 
0.01809 -0.0204381 0 
0.0180593 -0.0205257 0 
0.026352 -0.0320892 0 
0.028751 -0.0338791 0 
0.0287365 -0.033507 0 
0.0246893 -0.0284779 0 
0.0189823 -0.019826 0 
0.0152269 -0.0131435 0 
0.0165101 -0.0154848 0 
0.0189689 -0.019745 0 
0.0207884 -0.0227758 0 
0.0216248 -0.0243782 0 
0.0190406 -0.0287969 0 
0.0211697 -0.0303421 0 
0.0235072 -0.0314973 0 
0.0257548 -0.0331899 0 
0.0245653 -0.0343335 0 
0.0210843 -0.0356138 0 
0.0247832 -0.0334544 0 
0.0312382 -0.0329197 0 
0.0338036 -0.0332659 0 
0.0319092 -0.0322787 0 
0.0176702 -0.0286558 0 
0.0240915 -0.0389573 0 
0.0233222 -0.0362837 0 
0.024676 -0.0318308 0 
0.0296538 -0.0349208 0 
0.0332554 -0.0366326 0 
0.0440537 -0.0390425 0 
0.0478802 -0.0415088 0 
0.04348 -0.0424497 0 
0.0329964 -0.0347899 0 
0.00800315 -0.0113358 0 
0.00883082 -0.0139144 0 
0.0121125 -0.0170214 0 
0.0161648 -0.0180689 0 
0.0326762 -0.0310736 0 
0.0685211 -0.0591458 0 
0.0385316 -0.0375641 0 
0.0350172 -0.0364082 0 
0.0341048 -0.0363042 0 
0.0202236 -0.0256877 0 
0.0225507 -0.00801681 0 
0.0218396 -0.00704893 0 
0.000616565 -0.000585665 0 
0.0026555 0.014893 0 
0.00853483 0.0228988 0 
0.00701053 -0.00585169 0 
0.000896724 -0.00868332 0 
-0.00850878 -0.00230428 0 
-0.00678365 -0.00386069 0 
-0.00510699 -0.00637571 0 
-0.0020765 -0.00601025 0 
0.023882 -0.00768505 0 
0.010044 -0.00430959 0 
-0.0267344 0.00679247 0 
-0.0162031 0.0146847 0 
-0.0193761 0.0104526 0 
-0.0285724 0.0103005 0 
-0.0596039 0.0285574 0 
-0.0283193 0.0179231 0 
-0.023332 0.00732181 0 
-0.0305564 -0.00492309 0 
-0.0437511 -0.00532131 0 
-0.0444399 -0.00186525 0 
-0.0429351 0.00277186 0 
-0.0661211 0.00162791 0 
-0.0604944 0.00515668 0 
-0.0429163 0.0118002 0 
-0.0435558 0.018634 0 
-0.0427098 0.0179854 0 
-0.0360835 0.0125946 0 
-0.0849085 -0.00898939 0 
-0.0853787 -0.00855072 0 
-0.0566003 -0.000698404 0 
-0.0603459 0.000267129 0 
-0.069082 0.00372489 0 
-0.0546859 0.00919211 0 
-0.0532549 0.0164046 0 
-0.0754139 0.0266901 0 
-0.0655291 0.0233036 0 
-0.0467942 0.0160466 0 
-0.0541328 -0.0028657 0 
-0.0590182 -0.00238907 0 
-0.0530269 0.00104042 0 
-0.0494832 0.00474259 0 
-0.0492978 0.00859394 0 
-0.0482235 0.0151824 0 
-0.0492342 0.0205589 0 
-0.0537424 0.0241535 0 
-0.0529105 0.0215665 0 
-0.0464403 0.0170349 0 
-0.0418521 0.00770008 0 
-0.0394294 0.0103395 0 
-0.0391367 0.0117893 0 
-0.0427887 0.0148763 0 
-0.045969 0.0207645 0 
-0.0473582 0.0233408 0 
-0.0551411 0.0320647 0 
-0.0550581 0.0316187 0 
-0.0504545 0.0245891 0 
-0.0464675 0.0195066 0 
-0.0398337 0.00537039 0 
-0.0393653 0.00775255 0 
-0.0379602 0.0103167 0 
-0.0366452 0.0117667 0 
-0.0387122 0.0126424 0 
-0.0425083 0.0155942 0 
-0.0452897 0.0188599 0 
-0.0470742 0.0211224 0 
-0.0468196 0.0208365 0 
-0.0447096 0.0184158 0 
-0.00493174 -0.0182023 0 
-0.0041576 -0.0177604 0 
-0.00332834 -0.0172384 0 
-0.00245685 -0.0166526 0 
-0.00159079 -0.0160439 0 
-0.000816468 -0.0154765 0 
-0.000243976 -0.0150236 0 
2.74029e-005 -0.0147433 0 
-5.32142e-005 -0.0146572 0 
-0.000472238 -0.0147449 0 
-0.00505665 -0.0204292 0 
-0.00464735 -0.020732 0 
-0.0038799 -0.0203413 0 
-0.000717933 -0.0177865 0 
0.00432505 -0.0134107 0 
0.00806741 -0.0101059 0 
0.00657515 -0.0112266 0 
0.00327454 -0.0132516 0 
7.98054e-006 -0.0147495 0 
-0.0028336 -0.015698 0 
-0.00734094 -0.0219862 0 
-0.00576209 -0.0215947 0 
-0.00438592 -0.0208588 0 
-0.00179087 -0.020282 0 
0.00549243 -0.0192667 0 
0.016509 -0.0181121 0 
0.0094592 -0.0172837 0 
0.00368601 -0.0160776 0 
0.000689052 -0.0158352 0 
-0.00340845 -0.0163384 0 
-0.00737716 -0.0232806 0 
0.00217023 -0.0252445 0 
-0.000675456 -0.0241579 0 
-0.0062053 -0.0208531 0 
-0.00318772 -0.0195484 0 
-0.000658873 -0.0184117 0 
0.00338913 -0.0153518 0 
0.00180949 -0.0152279 0 
-0.0100403 -0.0178354 0 
-0.013372 -0.0177431 0 
-0.0179953 -0.023247 0 
-0.0185041 -0.0218198 0 
-0.0173642 -0.0206939 0 
-0.0189227 -0.0193995 0 
-0.0181733 -0.0201391 0 
-0.0132764 -0.023853 0 
-0.0164679 -0.0197151 0 
-0.0170321 -0.0181749 0 
-0.0183156 -0.0181085 0 
-0.0225242 -0.0175003 0 
-0.00287407 -0.0267254 0 
-0.00404347 -0.0254878 0 
-0.0262969 -0.0204414 0 
-0.0363387 -0.0115425 0 
-0.038698 -0.00701147 0 
-0.0344201 -0.0161167 0 
-0.0378627 -0.0163684 0 
-0.0424883 -0.013974 0 
-0.0392724 -0.0139847 0 
-0.0367182 -0.015515 0 
-0.0230618 -0.0305861 0 
-0.000699549 -0.028636 0 
-0.0123478 -0.0263418 0 
-0.0404579 -0.0163015 0 
-0.0450701 -0.0142631 0 
-0.0488282 -0.0164715 0 
-0.0564694 -0.0152129 0 
-0.0996912 -0.0133016 0 
-0.0484032 -0.00597056 0 
-0.0471342 -0.013714 0 
-0.0453586 -0.0399178 0 
-0.0551187 -0.0467368 0 
-0.0554101 -0.0390761 0 
-0.0529513 -0.0254591 0 
-0.071643 -0.0298447 0 
-0.0714688 -0.0272652 0 
-0.0615892 -0.0194671 0 
-0.0620071 -0.0142548 0 
-0.0587159 -0.0145618 0 
-0.0542138 -0.0165485 0 
-0.0866942 -0.0709416 0 
-0.086971 -0.0700222 0 
-0.0641547 -0.0384418 0 
-0.0654894 -0.031312 0 
-0.075186 -0.0310795 0 
-0.0660272 -0.0271132 0 
-0.0645783 -0.0234331 0 
-0.0770674 -0.0238613 0 
-0.0710981 -0.0224205 0 
-0.0596362 -0.0202263 0 
-0.0633114 -0.0472253 0 
-0.0666964 -0.0489485 0 
-0.0615616 -0.0410666 0 
-0.0584417 -0.0345767 0 
-0.0595009 -0.0320966 0 
-0.0620494 -0.0315194 0 
-0.062586 -0.0288928 0 
-0.0604129 -0.0210511 0 
-0.0607725 -0.0209296 0 
-0.057781 -0.0211041 0 
-0.0486382 -0.0373121 0 
-0.0434752 -0.0386022 0 
-0.0430872 -0.0386525 0 
-0.052821 -0.0355772 0 
-0.0637239 -0.0361873 0 
-0.0654041 -0.0350152 0 
-0.0554531 -0.0149165 0 
-0.05487 -0.0140311 0 
-0.0560156 -0.0187968 0 
-0.0557293 -0.0208703 0 
-0.0497372 -0.0354634 0 
-0.0470293 -0.0362802 0 
-0.0420659 -0.0384478 0 
-0.0378175 -0.0406274 0 
-0.0433076 -0.0376445 0 
-0.0521753 -0.032682 0 
-0.0558235 -0.0284841 0 
-0.0558204 -0.0242886 0 
-0.0551783 -0.0224175 0 
-0.0544851 -0.0223933 0 
0.00156589 -0.0261692 0 
0.00114347 -0.0254928 0 
0.000738052 -0.0247402 0 
0.000336402 -0.0239185 0 
-5.68155e-005 -0.0230712 0 
-0.000406658 -0.0222865 0 
-0.0006499 -0.0216813 0 
-0.000717116 -0.0213627 0 
-0.000564204 -0.0213828 0 
-0.00019162 -0.0217214 0 
-0.00113133 -0.0266391 0 
-0.00303997 -0.0257197 0 
-0.00350686 -0.0250759 0 
-0.00287572 -0.0231178 0 
-0.00397737 -0.0179948 0 
-0.00629844 -0.0129137 0 
-0.00504301 -0.0149989 0 
-0.00229115 -0.019089 0 
0.000222371 -0.0223724 0 
0.00219236 -0.0245977 0 
0.005069 -0.0309169 0 
0.00367908 -0.0300118 0 
0.00213495 -0.0289749 0 
0.00025304 -0.0279197 0 
0.000188929 -0.0281195 0 
0.00110459 -0.0293043 0 
0.00119681 -0.0277818 0 
0.00116673 -0.0264259 0 
0.001733 -0.0262977 0 
0.00324079 -0.0267001 0 
0.00587556 -0.0318406 0 
8.3845e-005 -0.0290776 0 
0.00168473 -0.0297075 0 
0.00551281 -0.0310252 0 
0.00560838 -0.0308079 0 
0.00460507 -0.0298144 0 
0.000950763 -0.0269404 0 
0.00022193 -0.0250733 0 
0.003292 -0.0235166 0 
0.00637008 -0.0266268 0 
0.0170955 -0.0375906 0 
0.0136284 -0.0356618 0 
0.0104177 -0.034039 0 
0.0102627 -0.0338989 0 
0.0107142 -0.0337903 0 
0.00962038 -0.0331136 0 
0.00991123 -0.031943 0 
0.00740649 -0.0268882 0 
0.00745151 -0.0258989 0 
0.0117459 -0.0302181 0 
0.0234547 -0.0399262 0 
0.0225895 -0.0386154 0 
0.0190219 -0.0370241 0 
0.0141324 -0.0358711 0 
0.0118511 -0.0358623 0 
0.0164464 -0.0375245 0 
0.0194116 -0.0390169 0 
0.0218118 -0.0390604 0 
0.0214178 -0.0367887 0 
0.0212242 -0.0366498 0 
0.0266261 -0.0474851 0 
0.0252827 -0.0417101 0 
0.0241848 -0.0395024 0 
0.0184584 -0.0246958 0 
0.0183666 -0.0354956 0 
0.0219116 -0.0412117 0 
0.0274238 -0.0459653 0 
0.0343851 -0.0727423 0 
0.0289638 -0.0344141 0 
0.0287861 -0.0400795 0 
0.0326699 -0.0617218 0 
0.0361148 -0.0706165 0 
0.0326075 -0.0596795 0 
0.0267687 -0.0394414 0 
0.0322316 -0.0483088 0 
0.0322745 -0.0507298 0 
0.0341805 -0.0485895 0 
0.0374591 -0.0467431 0 
0.0391763 -0.0447318 0 
0.0366785 -0.0447888 0 
0.0484769 -0.1044 0 
0.0482553 -0.103128 0 
0.0358556 -0.0602002 0 
0.0343211 -0.0491098 0 
0.0355647 -0.0536463 0 
0.0396226 -0.0539779 0 
0.0467934 -0.0536545 0 
0.0623268 -0.055721 0 
0.0562687 -0.0536013 0 
0.0449259 -0.0495613 0 
0.0389847 -0.0739144 0 
0.0404046 -0.0763413 0 
0.0385238 -0.0665334 0 
0.0382607 -0.0592851 0 
0.0422154 -0.0596236 0 
0.0534596 -0.066815 0 
0.0596388 -0.0672053 0 
0.0560712 -0.0541149 0 
0.0525469 -0.0522632 0 
0.0471111 -0.0509687 0 
0.0390448 -0.063388 0 
0.0395808 -0.0649726 0 
0.041258 -0.0661037 0 
0.0506728 -0.0691707 0 
0.0674123 -0.0811098 0 
0.0712982 -0.0819835 0 
0.0606606 -0.0482168 0 
0.0590156 -0.0461563 0 
0.0544009 -0.0506665 0 
0.0498818 -0.0516448 0 
0.0377886 -0.0611478 0 
0.038736 -0.0623922 0 
0.039166 -0.0646746 0 
0.0389166 -0.0666114 0 
0.0424547 -0.0658391 0 
0.0499742 -0.0653779 0 