# vtk DataFile Version 3.0
Autogenerated from september.txt by weatherdisplay
ASCII
DATASET STRUCTURED_GRID
DIMENSIONS 10 12 30
POINTS 3600 float
-89.3 37 0 
-89.2111 37 0 
-89.1222 37 0 
-89.0333 37 0 
-88.9444 37 0 
-88.8556 37 0 
-88.7667 37 0 
-88.6778 37 0 
-88.5889 37 0 
-88.5 37 0 
-89.5 37.5 0 
-89.3408 37.5 0 
-89.1816 37.5 0 
-89.0223 37.5 0 
-88.8631 37.5 0 
-88.7039 37.5 0 
-88.5447 37.5 0 
-88.3854 37.5 0 
-88.2262 37.5 0 
-88.067 37.5 0 
-90.05 38 0 
-89.825 38 0 
-89.6 38 0 
-89.375 38 0 
-89.15 38 0 
-88.925 38 0 
-88.7 38 0 
-88.475 38 0 
-88.25 38 0 
-88.025 38 0 
-90.267 38.5 0 
-89.9799 38.5 0 
-89.6928 38.5 0 
-89.4057 38.5 0 
-89.1186 38.5 0 
-88.8314 38.5 0 
-88.5443 38.5 0 
-88.2572 38.5 0 
-87.9701 38.5 0 
-87.683 38.5 0 
-90.683 39 0 
-90.3386 39 0 
-89.9941 39 0 
-89.6497 39 0 
-89.3052 39 0 
-88.9608 39 0 
-88.6163 39 0 
-88.2719 39 0 
-87.9274 39 0 
-87.583 39 0 
-91.067 39.5 0 
-90.6743 39.5 0 
-90.2817 39.5 0 
-89.889 39.5 0 
-89.4963 39.5 0 
-89.1037 39.5 0 
-88.711 39.5 0 
-88.3183 39.5 0 
-87.9257 39.5 0 
-87.533 39.5 0 
-91.467 40 0 
-91.0299 40 0 
-90.5928 40 0 
-90.1557 40 0 
-89.7186 40 0 
-89.2814 40 0 
-88.8443 40 0 
-88.4072 40 0 
-87.9701 40 0 
-87.533 40 0 
-91.367 40.5 0 
-90.9401 40.5 0 
-90.5132 40.5 0 
-90.0863 40.5 0 
-89.6594 40.5 0 
-89.2326 40.5 0 
-88.8057 40.5 0 
-88.3788 40.5 0 
-87.9519 40.5 0 
-87.525 40.5 0 
-90.933 41 0 
-90.5543 41 0 
-90.1757 41 0 
-89.797 41 0 
-89.4183 41 0 
-89.0397 41 0 
-88.661 41 0 
-88.2823 41 0 
-87.9037 41 0 
-87.525 41 0 
-91.125 41.5 0 
-90.725 41.5 0 
-90.325 41.5 0 
-89.925 41.5 0 
-89.525 41.5 0 
-89.125 41.5 0 
-88.725 41.5 0 
-88.325 41.5 0 
-87.925 41.5 0 
-87.525 41.5 0 
-90.142 42 0 
-89.8651 42 0 
-89.5882 42 0 
-89.3113 42 0 
-89.0344 42 0 
-88.7576 42 0 
-88.4807 42 0 
-88.2038 42 0 
-87.9269 42 0 
-87.65 42 0 
-90.65 42.508 0 
-90.3333 42.508 0 
-90.0167 42.508 0 
-89.7 42.508 0 
-89.3833 42.508 0 
-89.0667 42.508 0 
-88.75 42.508 0 
-88.4333 42.508 0 
-88.1167 42.508 0 
-87.8 42.508 0 
-89.3 37 0 
-89.2111 37 0 
-89.1222 37 0 
-89.0333 37 0 
-88.9444 37 0 
-88.8556 37 0 
-88.7667 37 0 
-88.6778 37 0 
-88.5889 37 0 
-88.5 37 0 
-89.5 37.5 0 
-89.3408 37.5 0 
-89.1816 37.5 0 
-89.0223 37.5 0 
-88.8631 37.5 0 
-88.7039 37.5 0 
-88.5447 37.5 0 
-88.3854 37.5 0 
-88.2262 37.5 0 
-88.067 37.5 0 
-90.05 38 0 
-89.825 38 0 
-89.6 38 0 
-89.375 38 0 
-89.15 38 0 
-88.925 38 0 
-88.7 38 0 
-88.475 38 0 
-88.25 38 0 
-88.025 38 0 
-90.267 38.5 0 
-89.9799 38.5 0 
-89.6928 38.5 0 
-89.4057 38.5 0 
-89.1186 38.5 0 
-88.8314 38.5 0 
-88.5443 38.5 0 
-88.2572 38.5 0 
-87.9701 38.5 0 
-87.683 38.5 0 
-90.683 39 0 
-90.3386 39 0 
-89.9941 39 0 
-89.6497 39 0 
-89.3052 39 0 
-88.9608 39 0 
-88.6163 39 0 
-88.2719 39 0 
-87.9274 39 0 
-87.583 39 0 
-91.067 39.5 0 
-90.6743 39.5 0 
-90.2817 39.5 0 
-89.889 39.5 0 
-89.4963 39.5 0 
-89.1037 39.5 0 
-88.711 39.5 0 
-88.3183 39.5 0 
-87.9257 39.5 0 
-87.533 39.5 0 
-91.467 40 0 
-91.0299 40 0 
-90.5928 40 0 
-90.1557 40 0 
-89.7186 40 0 
-89.2814 40 0 
-88.8443 40 0 
-88.4072 40 0 
-87.9701 40 0 
-87.533 40 0 
-91.367 40.5 0 
-90.9401 40.5 0 
-90.5132 40.5 0 
-90.0863 40.5 0 
-89.6594 40.5 0 
-89.2326 40.5 0 
-88.8057 40.5 0 
-88.3788 40.5 0 
-87.9519 40.5 0 
-87.525 40.5 0 
-90.933 41 0 
-90.5543 41 0 
-90.1757 41 0 
-89.797 41 0 
-89.4183 41 0 
-89.0397 41 0 
-88.661 41 0 
-88.2823 41 0 
-87.9037 41 0 
-87.525 41 0 
-91.125 41.5 0 
-90.725 41.5 0 
-90.325 41.5 0 
-89.925 41.5 0 
-89.525 41.5 0 
-89.125 41.5 0 
-88.725 41.5 0 
-88.325 41.5 0 
-87.925 41.5 0 
-87.525 41.5 0 
-90.142 42 0 
-89.8651 42 0 
-89.5882 42 0 
-89.3113 42 0 
-89.0344 42 0 
-88.7576 42 0 
-88.4807 42 0 
-88.2038 42 0 
-87.9269 42 0 
-87.65 42 0 
-90.65 42.508 0 
-90.3333 42.508 0 
-90.0167 42.508 0 
-89.7 42.508 0 
-89.3833 42.508 0 
-89.0667 42.508 0 
-88.75 42.508 0 
-88.4333 42.508 0 
-88.1167 42.508 0 
-87.8 42.508 0 
-89.3 37 0 
-89.2111 37 0 
-89.1222 37 0 
-89.0333 37 0 
-88.9444 37 0 
-88.8556 37 0 
-88.7667 37 0 
-88.6778 37 0 
-88.5889 37 0 
-88.5 37 0 
-89.5 37.5 0 
-89.3408 37.5 0 
-89.1816 37.5 0 
-89.0223 37.5 0 
-88.8631 37.5 0 
-88.7039 37.5 0 
-88.5447 37.5 0 
-88.3854 37.5 0 
-88.2262 37.5 0 
-88.067 37.5 0 
-90.05 38 0 
-89.825 38 0 
-89.6 38 0 
-89.375 38 0 
-89.15 38 0 
-88.925 38 0 
-88.7 38 0 
-88.475 38 0 
-88.25 38 0 
-88.025 38 0 
-90.267 38.5 0 
-89.9799 38.5 0 
-89.6928 38.5 0 
-89.4057 38.5 0 
-89.1186 38.5 0 
-88.8314 38.5 0 
-88.5443 38.5 0 
-88.2572 38.5 0 
-87.9701 38.5 0 
-87.683 38.5 0 
-90.683 39 0 
-90.3386 39 0 
-89.9941 39 0 
-89.6497 39 0 
-89.3052 39 0 
-88.9608 39 0 
-88.6163 39 0 
-88.2719 39 0 
-87.9274 39 0 
-87.583 39 0 
-91.067 39.5 0 
-90.6743 39.5 0 
-90.2817 39.5 0 
-89.889 39.5 0 
-89.4963 39.5 0 
-89.1037 39.5 0 
-88.711 39.5 0 
-88.3183 39.5 0 
-87.9257 39.5 0 
-87.533 39.5 0 
-91.467 40 0 
-91.0299 40 0 
-90.5928 40 0 
-90.1557 40 0 
-89.7186 40 0 
-89.2814 40 0 
-88.8443 40 0 
-88.4072 40 0 
-87.9701 40 0 
-87.533 40 0 
-91.367 40.5 0 
-90.9401 40.5 0 
-90.5132 40.5 0 
-90.0863 40.5 0 
-89.6594 40.5 0 
-89.2326 40.5 0 
-88.8057 40.5 0 
-88.3788 40.5 0 
-87.9519 40.5 0 
-87.525 40.5 0 
-90.933 41 0 
-90.5543 41 0 
-90.1757 41 0 
-89.797 41 0 
-89.4183 41 0 
-89.0397 41 0 
-88.661 41 0 
-88.2823 41 0 
-87.9037 41 0 
-87.525 41 0 
-91.125 41.5 0 
-90.725 41.5 0 
-90.325 41.5 0 
-89.925 41.5 0 
-89.525 41.5 0 
-89.125 41.5 0 
-88.725 41.5 0 
-88.325 41.5 0 
-87.925 41.5 0 
-87.525 41.5 0 
-90.142 42 0 
-89.8651 42 0 
-89.5882 42 0 
-89.3113 42 0 
-89.0344 42 0 
-88.7576 42 0 
-88.4807 42 0 
-88.2038 42 0 
-87.9269 42 0 
-87.65 42 0 
-90.65 42.508 0 
-90.3333 42.508 0 
-90.0167 42.508 0 
-89.7 42.508 0 
-89.3833 42.508 0 
-89.0667 42.508 0 
-88.75 42.508 0 
-88.4333 42.508 0 
-88.1167 42.508 0 
-87.8 42.508 0 
-89.3 37 0 
-89.2111 37 0 
-89.1222 37 0 
-89.0333 37 0 
-88.9444 37 0 
-88.8556 37 0 
-88.7667 37 0 
-88.6778 37 0 
-88.5889 37 0 
-88.5 37 0 
-89.5 37.5 0 
-89.3408 37.5 0 
-89.1816 37.5 0 
-89.0223 37.5 0 
-88.8631 37.5 0 
-88.7039 37.5 0 
-88.5447 37.5 0 
-88.3854 37.5 0 
-88.2262 37.5 0 
-88.067 37.5 0 
-90.05 38 0 
-89.825 38 0 
-89.6 38 0 
-89.375 38 0 
-89.15 38 0 
-88.925 38 0 
-88.7 38 0 
-88.475 38 0 
-88.25 38 0 
-88.025 38 0 
-90.267 38.5 0 
-89.9799 38.5 0 
-89.6928 38.5 0 
-89.4057 38.5 0 
-89.1186 38.5 0 
-88.8314 38.5 0 
-88.5443 38.5 0 
-88.2572 38.5 0 
-87.9701 38.5 0 
-87.683 38.5 0 
-90.683 39 0 
-90.3386 39 0 
-89.9941 39 0 
-89.6497 39 0 
-89.3052 39 0 
-88.9608 39 0 
-88.6163 39 0 
-88.2719 39 0 
-87.9274 39 0 
-87.583 39 0 
-91.067 39.5 0 
-90.6743 39.5 0 
-90.2817 39.5 0 
-89.889 39.5 0 
-89.4963 39.5 0 
-89.1037 39.5 0 
-88.711 39.5 0 
-88.3183 39.5 0 
-87.9257 39.5 0 
-87.533 39.5 0 
-91.467 40 0 
-91.0299 40 0 
-90.5928 40 0 
-90.1557 40 0 
-89.7186 40 0 
-89.2814 40 0 
-88.8443 40 0 
-88.4072 40 0 
-87.9701 40 0 
-87.533 40 0 
-91.367 40.5 0 
-90.9401 40.5 0 
-90.5132 40.5 0 
-90.0863 40.5 0 
-89.6594 40.5 0 
-89.2326 40.5 0 
-88.8057 40.5 0 
-88.3788 40.5 0 
-87.9519 40.5 0 
-87.525 40.5 0 
-90.933 41 0 
-90.5543 41 0 
-90.1757 41 0 
-89.797 41 0 
-89.4183 41 0 
-89.0397 41 0 
-88.661 41 0 
-88.2823 41 0 
-87.9037 41 0 
-87.525 41 0 
-91.125 41.5 0 
-90.725 41.5 0 
-90.325 41.5 0 
-89.925 41.5 0 
-89.525 41.5 0 
-89.125 41.5 0 
-88.725 41.5 0 
-88.325 41.5 0 
-87.925 41.5 0 
-87.525 41.5 0 
-90.142 42 0 
-89.8651 42 0 
-89.5882 42 0 
-89.3113 42 0 
-89.0344 42 0 
-88.7576 42 0 
-88.4807 42 0 
-88.2038 42 0 
-87.9269 42 0 
-87.65 42 0 
-90.65 42.508 0 
-90.3333 42.508 0 
-90.0167 42.508 0 
-89.7 42.508 0 
-89.3833 42.508 0 
-89.0667 42.508 0 
-88.75 42.508 0 
-88.4333 42.508 0 
-88.1167 42.508 0 
-87.8 42.508 0 
-89.3 37 0 
-89.2111 37 0 
-89.1222 37 0 
-89.0333 37 0 
-88.9444 37 0 
-88.8556 37 0 
-88.7667 37 0 
-88.6778 37 0 
-88.5889 37 0 
-88.5 37 0 
-89.5 37.5 0 
-89.3408 37.5 0 
-89.1816 37.5 0 
-89.0223 37.5 0 
-88.8631 37.5 0 
-88.7039 37.5 0 
-88.5447 37.5 0 
-88.3854 37.5 0 
-88.2262 37.5 0 
-88.067 37.5 0 
-90.05 38 0 
-89.825 38 0 
-89.6 38 0 
-89.375 38 0 
-89.15 38 0 
-88.925 38 0 
-88.7 38 0 
-88.475 38 0 
-88.25 38 0 
-88.025 38 0 
-90.267 38.5 0 
-89.9799 38.5 0 
-89.6928 38.5 0 
-89.4057 38.5 0 
-89.1186 38.5 0 
-88.8314 38.5 0 
-88.5443 38.5 0 
-88.2572 38.5 0 
-87.9701 38.5 0 
-87.683 38.5 0 
-90.683 39 0 
-90.3386 39 0 
-89.9941 39 0 
-89.6497 39 0 
-89.3052 39 0 
-88.9608 39 0 
-88.6163 39 0 
-88.2719 39 0 
-87.9274 39 0 
-87.583 39 0 
-91.067 39.5 0 
-90.6743 39.5 0 
-90.2817 39.5 0 
-89.889 39.5 0 
-89.4963 39.5 0 
-89.1037 39.5 0 
-88.711 39.5 0 
-88.3183 39.5 0 
-87.9257 39.5 0 
-87.533 39.5 0 
-91.467 40 0 
-91.0299 40 0 
-90.5928 40 0 
-90.1557 40 0 
-89.7186 40 0 
-89.2814 40 0 
-88.8443 40 0 
-88.4072 40 0 
-87.9701 40 0 
-87.533 40 0 
-91.367 40.5 0 
-90.9401 40.5 0 
-90.5132 40.5 0 
-90.0863 40.5 0 
-89.6594 40.5 0 
-89.2326 40.5 0 
-88.8057 40.5 0 
-88.3788 40.5 0 
-87.9519 40.5 0 
-87.525 40.5 0 
-90.933 41 0 
-90.5543 41 0 
-90.1757 41 0 
-89.797 41 0 
-89.4183 41 0 
-89.0397 41 0 
-88.661 41 0 
-88.2823 41 0 
-87.9037 41 0 
-87.525 41 0 
-91.125 41.5 0 
-90.725 41.5 0 
-90.325 41.5 0 
-89.925 41.5 0 
-89.525 41.5 0 
-89.125 41.5 0 
-88.725 41.5 0 
-88.325 41.5 0 
-87.925 41.5 0 
-87.525 41.5 0 
-90.142 42 0 
-89.8651 42 0 
-89.5882 42 0 
-89.3113 42 0 
-89.0344 42 0 
-88.7576 42 0 
-88.4807 42 0 
-88.2038 42 0 
-87.9269 42 0 
-87.65 42 0 
-90.65 42.508 0 
-90.3333 42.508 0 
-90.0167 42.508 0 
-89.7 42.508 0 
-89.3833 42.508 0 
-89.0667 42.508 0 
-88.75 42.508 0 
-88.4333 42.508 0 
-88.1167 42.508 0 
-87.8 42.508 0 
-89.3 37 0 
-89.2111 37 0 
-89.1222 37 0 
-89.0333 37 0 
-88.9444 37 0 
-88.8556 37 0 
-88.7667 37 0 
-88.6778 37 0 
-88.5889 37 0 
-88.5 37 0 
-89.5 37.5 0 
-89.3408 37.5 0 
-89.1816 37.5 0 
-89.0223 37.5 0 
-88.8631 37.5 0 
-88.7039 37.5 0 
-88.5447 37.5 0 
-88.3854 37.5 0 
-88.2262 37.5 0 
-88.067 37.5 0 
-90.05 38 0 
-89.825 38 0 
-89.6 38 0 
-89.375 38 0 
-89.15 38 0 
-88.925 38 0 
-88.7 38 0 
-88.475 38 0 
-88.25 38 0 
-88.025 38 0 
-90.267 38.5 0 
-89.9799 38.5 0 
[...]
POINT_DATA 3600
VECTORS WindVector float
0.0229413 -0.0360508 0 
0.0227313 -0.0368591 0 
0.0223089 -0.0373195 0 
0.0217313 -0.0375232 0 
0.0210804 -0.0375679 0 
0.0204414 -0.0375164 0 
0.019877 -0.0373725 0 
0.019409 -0.03709 0 
0.019019 -0.0366122 0 
0.0186656 -0.0359113 0 
0.0325859 -0.0501991 0 
0.036082 -0.0598064 0 
0.0359526 -0.061165 0 
0.0295944 -0.0524468 0 
0.0217833 -0.0442852 0 
0.0178908 -0.0423534 0 
0.0186417 -0.0418761 0 
0.0194385 -0.0399992 0 
0.019384 -0.0375777 0 
0.0186819 -0.035068 0 
0.0301581 0.00145745 0 
0.0317864 -0.00797357 0 
0.0311926 -0.0253875 0 
0.0314066 -0.0429536 0 
0.0284527 -0.0479373 0 
0.023589 -0.0470899 0 
0.0240915 -0.0450685 0 
0.0253326 -0.0459588 0 
0.0251047 -0.0458944 0 
0.0224698 -0.0417158 0 
0.0338364 0.0222039 0 
0.0574784 0.0329493 0 
0.0497577 0.0243443 0 
0.0297979 -0.00752863 0 
0.0264878 -0.0262585 0 
0.0265463 -0.0358561 0 
0.0306981 -0.0536418 0 
0.0307619 -0.0593961 0 
0.0234577 -0.0520993 0 
0.0178658 -0.0384327 0 
-0.00485724 0.0313142 0 
0.00571724 0.0281066 0 
0.0160549 0.025087 0 
0.0167823 0.0168663 0 
0.0239421 -0.00439423 0 
0.0484783 -0.0281019 0 
0.0255219 -0.0219036 0 
0.0182742 -0.036056 0 
0.0162305 -0.0379629 0 
0.00845857 -0.0206215 0 
-0.024617 0.0468948 0 
-0.0235067 0.04657 0 
-0.0163148 0.0404476 0 
-0.0108495 0.0436593 0 
-0.00826033 0.0458181 0 
-0.00080091 0.0209171 0 
-0.00207134 0.0163482 0 
-0.00798625 0.0196184 0 
-0.00817242 0.014482 0 
-0.00852055 0.0111652 0 
-0.0284967 0.047169 0 
-0.0293394 0.051523 0 
-0.0290112 0.0498985 0 
-0.0278029 0.0455851 0 
-0.023504 0.0480982 0 
-0.0237139 0.0441318 0 
-0.0238297 0.0435075 0 
-0.0324401 0.0783174 0 
-0.0209266 0.0386644 0 
-0.0222683 0.0316344 0 
-0.0370212 0.0537656 0 
-0.0425442 0.0600469 0 
-0.0410487 0.0564043 0 
-0.0396733 0.0493752 0 
-0.0556163 0.0551826 0 
-0.0513535 0.0552774 0 
-0.0392319 0.0501484 0 
-0.0390127 0.0508025 0 
-0.0413294 0.0478375 0 
-0.0371107 0.0424245 0 
-0.0569188 0.0759126 0 
-0.0572617 0.0756195 0 
-0.0486886 0.0561143 0 
-0.053499 0.0526467 0 
-0.0590115 0.0585745 0 
-0.0536936 0.0571192 0 
-0.058008 0.0579394 0 
-0.0840364 0.0640728 0 
-0.0728695 0.0600812 0 
-0.0521345 0.0510209 0 
-0.0457364 0.0589667 0 
-0.0484948 0.0610516 0 
-0.0481647 0.0568389 0 
-0.0497952 0.0545529 0 
-0.0539505 0.0580285 0 
-0.0624708 0.0691672 0 
-0.068214 0.074694 0 
-0.0682173 0.0687728 0 
-0.0640103 0.0624877 0 
-0.0551304 0.0555233 0 
-0.0484531 0.0505669 0 
-0.0498506 0.0483934 0 
-0.0515426 0.0496575 0 
-0.0592115 0.062857 0 
-0.073099 0.0836783 0 
-0.0769937 0.0884857 0 
-0.0749253 0.0775384 0 
-0.0734666 0.0753917 0 
-0.065666 0.0680736 0 
-0.0587025 0.061206 0 
-0.0448763 0.0500313 0 
-0.0470042 0.0493766 0 
-0.0488569 0.0472791 0 
-0.0496157 0.0450278 0 
-0.0521645 0.0507798 0 
-0.0582895 0.0618675 0 
-0.0625841 0.067754 0 
-0.0636526 0.0681563 0 
-0.0618302 0.0656975 0 
-0.057744 0.0614175 0 
-0.0306205 0.0248997 0 
-0.0300549 0.0231345 0 
-0.0294019 0.0210489 0 
-0.0286705 0.0186887 0 
-0.0279037 0.0162103 0 
-0.0271845 0.0138944 0 
-0.026621 0.0120965 0 
-0.0263097 0.0111314 0 
-0.0262964 0.0111486 0 
-0.02656 0.0120833 0 
-0.031661 0.0308022 0 
-0.0311054 0.030132 0 
-0.0305915 0.0284286 0 
-0.0286827 0.0203398 0 
-0.0236893 0.00280933 0 
-0.0187618 -0.0132841 0 
-0.0207364 -0.00673573 0 
-0.0244965 0.00631117 0 
-0.0273601 0.0169173 0 
-0.0291531 0.0239305 0 
-0.0334524 0.0401762 0 
-0.0332036 0.0391339 0 
-0.0332494 0.0364252 0 
-0.0333713 0.033756 0 
-0.0349818 0.0320872 0 
-0.0379683 0.0310426 0 
-0.0350629 0.0323734 0 
-0.0324787 0.0376106 0 
-0.0316966 0.0411969 0 
-0.0312777 0.0412111 0 
-0.0333679 0.0441741 0 
-0.0301229 0.0500277 0 
-0.0313569 0.0478902 0 
-0.0351967 0.0420996 0 
-0.0368786 0.0410386 0 
-0.0362455 0.0429089 0 
-0.0331066 0.052665 0 
-0.0304972 0.0547674 0 
-0.0264218 0.0494142 0 
-0.0290666 0.0461134 0 
-0.0389366 0.0362677 0 
-0.0374485 0.0391364 0 
-0.0363527 0.0421863 0 
-0.0371603 0.0434369 0 
-0.039216 0.046928 0 
-0.0431501 0.0556287 0 
-0.0368163 0.0491059 0 
-0.0288572 0.0483591 0 
-0.0271604 0.0479478 0 
-0.0308233 0.0452718 0 
-0.0430968 0.0314813 0 
-0.0427017 0.0317183 0 
-0.0400044 0.0345074 0 
-0.0414111 0.040998 0 
-0.0428939 0.0450307 0 
-0.0396571 0.0443463 0 
-0.0370072 0.0464324 0 
-0.0339586 0.046887 0 
-0.0330002 0.0450475 0 
-0.0342442 0.0434778 0 
-0.0425094 0.0314928 0 
-0.0439967 0.0304635 0 
-0.0420472 0.0296375 0 
-0.0339167 0.0235995 0 
-0.0402245 0.0348131 0 
-0.0413767 0.0387459 0 
-0.0380491 0.0457448 0 
-0.0395074 0.0733731 0 
-0.0284482 0.0416857 0 
-0.0360077 0.0424329 0 
-0.0429096 0.0315812 0 
-0.0432627 0.0318068 0 
-0.041207 0.0292175 0 
-0.0379345 0.0235619 0 
-0.0431672 0.0242386 0 
-0.0452881 0.0317171 0 
-0.0424443 0.0401826 0 
-0.0404872 0.0449788 0 
-0.0418101 0.0431026 0 
-0.0424677 0.0415687 0 
-0.04549 0.0346974 0 
-0.0453601 0.0342188 0 
-0.0423254 0.0259285 0 
-0.04164 0.0210723 0 
-0.0465273 0.0271939 0 
-0.0483065 0.0316505 0 
-0.0521073 0.0376647 0 
-0.062854 0.0462631 0 
-0.058358 0.0440658 0 
-0.05031 0.0402638 0 
-0.0439267 0.0299394 0 
-0.0441676 0.0290709 0 
-0.0439617 0.0254397 0 
-0.0446833 0.0221901 0 
-0.0481593 0.0232209 0 
-0.0564432 0.0274559 0 
-0.0615063 0.0303898 0 
-0.0608684 0.0334528 0 
-0.0576414 0.0360246 0 
-0.053248 0.0365061 0 
-0.0429314 0.0106456 0 
-0.0415073 0.000764528 0 
-0.0424431 -0.000554755 0 
-0.0518047 0.0140971 0 
-0.0651169 0.0259351 0 
-0.0685819 0.028238 0 
-0.0672683 0.0294264 0 
-0.0662524 0.0298335 0 
-0.0608003 0.0312235 0 
-0.056412 0.0326486 0 
-0.0437693 0.0185347 0 
-0.0430992 0.0114838 0 
-0.0411868 0.000246745 0 
-0.0391597 -0.0088962 0 
-0.0437524 0.00122907 0 
-0.0524054 0.0169459 0 
-0.0575051 0.024526 0 
-0.059109 0.0276576 0 
-0.0583354 0.0292456 0 
-0.0560422 0.0304848 0 
0.0143255 0.0457763 0 
0.0141906 0.0459489 0 
0.0141359 0.046107 0 
0.0141519 0.0462611 0 
0.0142206 0.0464138 0 
0.0143159 0.0465525 0 
0.0144075 0.0466499 0 
0.0144697 0.0466737 0 
0.0144912 0.0466024 0 
0.0144788 0.0464343 0 
0.0118919 0.0478538 0 
0.0112159 0.0488084 0 
0.0110732 0.0489354 0 
0.0116388 0.0481231 0 
0.0136572 0.0482203 0 
0.0159836 0.0491926 0 
0.0149678 0.0486933 0 
0.0130353 0.0477336 0 
0.0117296 0.0469378 0 
0.0112788 0.0462458 0 
0.0143003 0.049198 0 
0.0125397 0.0494212 0 
0.0111031 0.0481206 0 
0.0090892 0.0469041 0 
0.00484274 0.0440637 0 
-0.00121607 0.0396331 0 
0.00142072 0.043772 0 
0.00130083 0.0490917 0 
0.000887375 0.0505912 0 
0.00308921 0.0490153 0 
0.0150183 0.0517608 0 
0.0061957 0.0628269 0 
0.00802071 0.0589999 0 
0.0101512 0.0484272 0 
0.00600054 0.0457001 0 
0.00221193 0.0468534 0 
-0.00634166 0.0553636 0 
-0.00920237 0.0564162 0 
-0.00481591 0.0493353 0 
0.00332462 0.0459106 0 
0.0330928 0.0338259 0 
0.0277366 0.03933 0 
0.0223499 0.0446237 0 
0.0201227 0.0449747 0 
0.0130023 0.0463793 0 
-0.0014292 0.054579 0 
0.00726042 0.0468306 0 
0.0029392 0.0452477 0 
0.0026938 0.0443423 0 
0.013067 0.0401863 0 
0.0417458 0.0228883 0 
0.0405947 0.0236058 0 
0.0380517 0.0296492 0 
0.0340929 0.0376728 0 
0.0318982 0.0417768 0 
0.0284208 0.0373919 0 
0.0291977 0.0336969 0 
0.0322328 0.0291503 0 
0.0309358 0.0289909 0 
0.0310014 0.0300578 0 
0.0495673 0.0224414 0 
0.0447407 0.0203851 0 
0.0446252 0.021018 0 
0.0402797 0.0208738 0 
0.0412621 0.0296815 0 
0.043657 0.0289115 0 
0.0460642 0.0238497 0 
0.0591373 0.0223461 0 
0.0421911 0.0154137 0 
0.0435723 0.0222125 0 
0.0633827 0.0201507 0 
0.0715657 0.018372 0 
0.0650989 0.0183684 0 
0.0531945 0.0176323 0 
0.0637304 0.0137415 0 
0.0628988 0.0160113 0 
0.0571316 0.0184177 0 
0.0569234 0.0172068 0 
0.0579143 0.017163 0 
0.0556109 0.019209 0 
0.0993323 0.0147327 0 
0.0987879 0.0145229 0 
0.0691833 0.0155207 0 
0.0642709 0.0131379 0 
0.0688257 0.0122574 0 
0.0687395 0.0123752 0 
0.0728135 0.013262 0 
0.0861138 0.0174218 0 
0.0801375 0.0167462 0 
0.0682903 0.0166809 0 
0.0764514 0.0174639 0 
0.0794571 0.0164622 0 
0.0740571 0.0159212 0 
0.0711524 0.0142841 0 
0.0737267 0.00994206 0 
0.0822856 -0.00118547 0 
0.089716 -0.00561446 0 
0.0926691 0.00327617 0 
0.0848587 0.00895187 0 
0.075541 0.0125049 0 
0.0762626 0.0170241 0 
0.0799738 0.0180729 0 
0.0818872 0.0165615 0 
0.0847687 0.0040194 0 
0.093849 -0.0165076 0 
0.0981458 -0.020741 0 
0.111767 -0.00388293 0 
0.110376 -0.0017003 0 
0.0955813 0.00278744 0 
0.0845359 0.00733724 0 
0.0718224 0.0173582 0 
0.0751953 0.0174317 0 
0.0797013 0.0188262 0 
0.0828841 0.0206357 0 
0.082633 0.0153218 0 
0.0848884 0.0051582 0 
0.0888881 0.000313811 0 
0.0916916 0.000908306 0 
0.0900856 0.00328722 0 
0.0845602 0.0064094 0 
0.00968631 0.0672168 0 
0.00926239 0.0665699 0 
0.00873785 0.0658817 0 
0.00812922 0.0651589 0 
0.00748057 0.0644368 0 
0.00686265 0.063786 0 
0.00635741 0.0633001 0 
0.00602994 0.0630652 0 
0.00590325 0.063125 0 
0.0059532 0.0634649 0 
0.0122017 0.0677501 0 
0.0125551 0.0665104 0 
0.0122323 0.0657418 0 
0.00983904 0.0638245 0 
0.00500954 0.0597622 0 
0.000977937 0.0560259 0 
0.00232816 0.0576589 0 
0.00456114 0.0611794 0 
0.00593779 0.0643696 0 
0.00660442 0.0667633 0 
0.0111854 0.0813587 0 
0.0114267 0.0791713 0 
0.0121857 0.0737575 0 
0.013449 0.0681236 0 
0.0160873 0.0625836 0 
0.0204371 0.0560844 0 
0.0146937 0.0613921 0 
0.00832761 0.0672537 0 
0.00609288 0.0699052 0 
0.00589541 0.0711904 0 
0.0109812 0.0881677 0 
0.0099141 0.0996898 0 
0.0102088 0.094678 0 
0.0111897 0.0788625 0 
0.0119438 0.0718515 0 
0.0107026 0.0703488 0 
0.00417533 0.0727686 0 
0.00226494 0.0738201 0 
0.0032755 0.0750108 0 
0.00484341 0.0751303 0 
0.0144899 0.072691 0 
0.0129671 0.0778437 0 
0.0115923 0.0825009 0 
0.0106818 0.0818971 0 
0.00873339 0.0806746 0 
0.00547041 0.0845934 0 
0.00666307 0.0794073 0 
0.00469288 0.0769821 0 
0.00421798 0.0768236 0 
0.00577176 0.077377 0 
0.019464 0.0593605 0 
0.0192396 0.059771 0 
0.0157208 0.0692299 0 
0.0125378 0.0770219 0 
0.0109998 0.0805469 0 
0.00969158 0.0804831 0 
0.00875242 0.0826848 0 
0.00814468 0.0832405 0 
0.00735439 0.0811048 0 
0.00722539 0.0804707 0 
0.018472 0.0651382 0 
0.0208986 0.0566496 0 
0.020248 0.05857 0 
0.0216274 0.0567921 0 
0.0143244 0.0718503 0 
0.0111434 0.07827 0 
0.00999925 0.0864668 0 
0.0153354 0.119711 0 
0.00650792 0.0775111 0 
0.00730032 0.0827759 0 
0.019621 0.0698219 0 
0.0218488 0.070149 0 
0.0203908 0.0683025 0 
0.0168918 0.0643708 0 
0.0102572 0.0708149 0 
0.00934127 0.0766726 0 
0.00878577 0.0855084 0 
0.00713239 0.0900299 0 
0.00589398 0.0891035 0 
0.00655469 0.0878355 0 
0.0272798 0.0763192 0 
0.026877 0.0762021 0 
0.0157711 0.0720681 0 
0.0108651 0.0707331 0 
0.00906705 0.0753351 0 
0.00842062 0.0824955 0 
0.00611494 0.0923654 0 
0.000885731 0.108071 0 
0.00258339 0.102967 0 
0.00555759 0.0936416 0 
0.0193682 0.0750074 0 
0.0195424 0.0753035 0 
0.0161257 0.075197 0 
0.0126346 0.0761001 0 
0.0101277 0.0800047 0 
0.00700126 0.0885282 0 
0.0053089 0.0954869 0 
0.00532919 0.100676 0 
0.00531401 0.098842 0 
0.00612322 0.0944608 0 
0.0134759 0.0752275 0 
0.013383 0.0738006 0 
0.0128407 0.0746941 0 
0.00930857 0.0835358 0 
0.00462647 0.094191 0 
0.00358959 0.09783 0 
0.00555387 0.108196 0 
0.00576907 0.107909 0 
0.0061781 0.100868 0 
0.00659603 0.0961248 0 
0.0134909 0.0765739 0 
0.0132085 0.0758739 0 
0.0134866 0.0737694 0 
0.0140808 0.0715132 0 
0.0123152 0.0764217 0 
0.00907958 0.0856896 0 
0.00730908 0.0921402 0 
0.00684036 0.0958767 0 
0.00689073 0.0963253 0 
0.00714336 0.0944255 0 
-0.0237843 0.0346855 0 
-0.0233301 0.0348682 0 
-0.0227665 0.0349558 0 
-0.0221081 0.0349726 0 
-0.0214021 0.0349471 0 
-0.0207317 0.0349036 0 
-0.0202011 0.0348561 0 
-0.0199012 0.0348075 0 
-0.0198738 0.0347541 0 
-0.0200978 0.0346904 0 
-0.0258712 0.0385701 0 
-0.0258966 0.0407802 0 
-0.0254935 0.0410111 0 
-0.0232061 0.0386072 0 
-0.017923 0.0361027 0 
-0.0129602 0.0350361 0 
-0.0149284 0.03534 0 
-0.0186906 0.0360154 0 
-0.021551 0.0365831 0 
-0.0232818 0.0367816 0 
-0.0254407 0.0299823 0 
-0.0258893 0.0320343 0 
-0.0266604 0.0345438 0 
-0.0274948 0.0368945 0 
-0.0291789 0.0355798 0 
-0.0318075 0.0317416 0 
-0.0296365 0.0362279 0 
-0.0284039 0.0433069 0 
-0.0282355 0.0458477 0 
-0.0275776 0.043946 0 
-0.0247296 0.0273783 0 
-0.0236188 0.0322349 0 
-0.024597 0.0318031 0 
-0.0285139 0.0326744 0 
-0.0312639 0.0355421 0 
-0.0317426 0.0396735 0 
-0.0314704 0.0538547 0 
-0.0303461 0.0565071 0 
-0.0267479 0.0477584 0 
-0.026715 0.0424308 0 
-0.024321 0.0139767 0 
-0.0253313 0.0180719 0 
-0.0262865 0.0224012 0 
-0.0281995 0.0253601 0 
-0.0329748 0.0332345 0 
-0.04142 0.0458405 0 
-0.0331228 0.0400926 0 
-0.0275313 0.0425818 0 
-0.0262209 0.0423864 0 
-0.0264527 0.0367045 0 
-0.0222648 0.00762899 0 
-0.0230277 0.00845339 0 
-0.0258188 0.00889688 0 
-0.0292616 0.0129361 0 
-0.0309842 0.0158937 0 
-0.0304492 0.0236211 0 
-0.0302259 0.0297512 0 
-0.0286554 0.0318609 0 
-0.0270397 0.0305172 0 
-0.0263052 0.0281502 0 
-0.0202165 -0.00145911 0 
-0.021392 0.00470354 0 
-0.0229402 0.00307656 0 
-0.0301775 7.89289e-005 0 
-0.0288167 0.00505613 0 
-0.0281938 0.00930935 0 
-0.0292487 0.022953 0 
-0.0423692 0.0562258 0 
-0.0240002 0.0260429 0 
-0.0258633 0.0223054 0 
-0.0161094 -0.0174646 0 
-0.013941 -0.0275301 0 
-0.0173777 -0.0217389 0 
-0.0223509 -0.0109446 0 
-0.0235745 -0.0158914 0 
-0.0286568 -0.00675463 0 
-0.0271937 0.00983066 0 
-0.0296338 0.0192624 0 
-0.0293821 0.0163164 0 
-0.0268211 0.0142914 0 
-0.00451039 -0.0594859 0 
-0.00476179 -0.0589529 0 
-0.0141756 -0.025159 0 
-0.0153537 -0.0204761 0 
-0.0246815 -0.0158057 0 
-0.0210595 -0.0101108 0 
-0.024505 -0.00296019 0 
-0.04498 0.00338922 0 
-0.0379328 0.00363928 0 
-0.0264056 0.00478785 0 
-0.0107761 -0.0316169 0 
-0.00960414 -0.0351815 0 
-0.0104651 -0.0284089 0 
-0.0105091 -0.0237498 0 
-0.00930414 -0.0233238 0 
-0.00336502 -0.028296 0 
0.000547967 -0.0292927 0 
-0.00356131 -0.0181956 0 
-0.0130793 -0.0098001 0 
-0.0165295 -0.00443773 0 
-0.000690311 -0.0323376 0 
0.00599619 -0.0391413 0 
0.00805282 -0.0411314 0 
0.00525473 -0.03759 0 
0.00942196 -0.044321 0 
0.0120225 -0.0458934 0 
0.0181816 -0.0294247 0 
0.0165022 -0.026887 0 
0.00420326 -0.0205317 0 
-0.00464429 -0.0140478 0 
-0.00583452 -0.0250568 0 
-0.000924195 -0.0303988 0 
0.0064399 -0.0388297 0 
0.0121109 -0.0456076 0 
0.00831081 -0.0402143 0 
0.00440795 -0.0334639 0 
0.0044034 -0.0300309 0 
0.0047573 -0.0261362 0 
0.00261973 -0.0220335 0 
-0.0019148 -0.017394 0 
-0.0239731 0.0141012 0 
-0.0240388 0.0140218 0 
-0.0240752 0.0138191 0 
-0.0240834 0.0135167 0 
-0.0240685 0.0131581 0 
-0.0240426 0.0128023 0 
-0.0240241 0.0125133 0 
-0.0240325 0.0123411 0 
-0.0240804 0.0123061 0 
-0.0241679 0.0123947 0 
-0.0244196 0.0178729 0 
-0.0245255 0.0195046 0 
-0.0245861 0.0195054 0 
-0.02463 0.0167278 0 
-0.0239328 0.0122798 0 
-0.0227568 0.00887252 0 
-0.0234101 0.0101966 0 
-0.0248362 0.0128632 0 
-0.0259888 0.0149792 0 
-0.0265772 0.0161542 0 
-0.0227447 0.0111595 0 
-0.0235601 0.0127552 0 
-0.024538 0.0150259 0 
-0.025544 0.0174586 0 
-0.0271478 0.0181543 0 
-0.0291203 0.0178958 0 
-0.0300025 0.0198688 0 
-0.0332235 0.0252041 0 
-0.0343364 0.027539 0 
-0.0322351 0.0255356 0 
-0.021631 0.00916909 0 
-0.0229885 0.0114469 0 
-0.0232203 0.0113919 0 
-0.0253569 0.0124 0 
-0.028241 0.0146464 0 
-0.0312838 0.0194804 0 
-0.0409357 0.0359622 0 
-0.0409663 0.039783 0 
-0.0300051 0.0314982 0 
-0.0281277 0.0248563 0 
-0.0172218 0.0026399 0 
-0.0184826 0.0050404 0 
-0.0200534 0.00721048 0 
-0.0216689 0.00800673 0 
-0.0260471 0.00804864 0 
-0.0325439 0.00573837 0 
-0.0291342 0.0133148 0 
-0.0273259 0.0236798 0 
-0.0261124 0.0247237 0 
-0.0248839 0.0174601 0 
-0.0166184 -7.88822e-005 0 
-0.0167643 0.00135854 0 
-0.0149311 0.00308154 0 
-0.0161116 0.00664044 0 
-0.0174394 0.00823006 0 
-0.021397 0.00485276 0 
-0.0238696 0.00457085 0 
-0.0240588 0.00485432 0 
-0.0226966 0.00562088 0 
-0.0212504 0.00524012 0 
-0.0119804 -0.00874135 0 
-0.0159964 -0.00195724 0 
-0.0140369 -0.000260547 0 
-0.00729896 0.0131086 0 
-0.0128712 0.00481265 0 
-0.0161761 -0.000454763 0 
-0.0212038 -0.00209716 0 
-0.0387671 0.00142152 0 
-0.0199214 -0.00251774 0 
-0.0180638 -0.00298233 0 
-0.00566304 -0.0236786 0 
-0.00273045 -0.0320699 0 
-0.00373034 -0.0222211 0 
-0.00634922 -0.00484705 0 
-0.0132181 -0.0138206 0 
-0.0171763 -0.0123375 0 
-0.0152627 -0.0103919 0 
-0.0172446 -0.00978896 0 
-0.0149261 -0.0114749 0 
-0.0131916 -0.0107954 0 
0.00736549 -0.0645655 0 
0.00722804 -0.0636153 0 
-0.00232395 -0.0268239 0 
-0.0056631 -0.0191238 0 
-0.0131178 -0.0182481 0 
-0.00590983 -0.021041 0 
-0.00366014 -0.0233321 0 
-0.00906242 -0.027497 0 
-0.00780786 -0.0248332 0 
-0.00641309 -0.019299 0 
0.001652 -0.0384889 0 
0.0031659 -0.0415678 0 
0.00297288 -0.0348633 0 
0.00385245 -0.0308033 0 
0.00721783 -0.0324889 0 
0.0186297 -0.0414725 0 
0.0250889 -0.0455198 0 
0.0186632 -0.0374457 0 
0.00910363 -0.0309813 0 
0.0031299 -0.0254443 0 
0.0157997 -0.0432687 0 
0.023928 -0.0514753 0 
0.0269735 -0.054128 0 
0.0271769 -0.0512121 0 
0.0383293 -0.0592408 0 
0.0421098 -0.0613446 0 
0.0375685 -0.0463269 0 
0.0351448 -0.0440425 0 
0.0235429 -0.0382445 0 
0.0142598 -0.0323699 0 
0.00939768 -0.0359837 0 
0.0155359 -0.0421657 0 
0.0243072 -0.0516585 0 
0.0308162 -0.0590987 0 
0.0275948 -0.0538632 0 
0.0253701 -0.0478382 0 
0.0259296 -0.0453088 0 
0.0251774 -0.0421789 0 
0.0219926 -0.038604 0 
0.0166511 -0.0343856 0 
-0.0168442 0.00930847 0 
-0.016784 0.00973168 0 
-0.0166267 0.0101871 0 
-0.0163905 0.0106657 0 
-0.0161087 0.0111417 0 
-0.0158254 0.0115738 0 
-0.0155864 0.0119146 0 
-0.0154257 0.0121275 0 
-0.0153545 0.0122002 0 
-0.0153595 0.0121467 0 
-0.0199551 0.00853017 0 
-0.0211134 0.00871133 0 
-0.0211071 0.00911664 0 
-0.0190827 0.0108588 0 
-0.015694 0.0135443 0 
-0.0130903 0.0152727 0 
-0.0140161 0.0148177 0 
-0.0157021 0.0141212 0 
-0.0168433 0.0136287 0 
-0.0173126 0.0131681 0 
-0.0158597 0.00533661 0 
-0.0172054 0.0062952 0 
-0.0187106 0.00772289 0 
-0.0204736 0.00930684 0 
-0.0218684 0.0116945 0 
-0.0233337 0.0145605 0 
-0.0226091 0.0152948 0 
-0.0235919 0.0182446 0 
-0.0238948 0.0194156 0 
-0.0220271 0.0177946 0 
-0.0146686 0.00382121 0 
-0.0190843 0.0044792 0 
-0.018383 0.0047214 0 
-0.0178582 0.00685541 0 
-0.0198494 0.00994533 0 
-0.0221039 0.0137498 0 
-0.0288987 0.0244352 0 
-0.029006 0.0271871 0 
-0.0210124 0.0220989 0 
-0.0188495 0.0167324 0 
-0.00318577 0.00415136 0 
-0.00733917 0.00241064 0 
-0.0112992 0.00134161 0 
-0.0131661 0.00104877 0 
-0.0161199 0.00342149 0 
-0.0206535 0.00615708 0 
-0.0187679 0.00860576 0 
-0.0184587 0.0157465 0 
-0.0176306 0.0165121 0 
-0.0156174 0.0101555 0 
0.00584067 0.0144522 0 
0.00490209 0.014291 0 
-0.000524652 0.00265963 0 
-0.00806748 -0.00733664 0 
-0.0120958 -0.0117054 0 
-0.0118567 -0.00373374 0 
-0.0145743 -0.00191978 0 
-0.0156485 -0.00234815 0 
-0.0136598 -0.00160169 0 
-0.0115292 -0.0013361 0 
0.00876072 0.00295158 0 
0.00860805 0.0160041 0 
0.0077393 0.0123906 0 
0.00559691 0.0114033 0 
-0.00173835 -0.00590095 0 
-0.0040464 -0.0106016 0 
-0.0119022 -0.00948764 0 
-0.0425728 -0.00674286 0 
-0.0105476 -0.0113286 0 
-0.00775854 -0.00950644 0 
0.0159957 -0.0103253 0 
0.0211294 -0.0155111 0 
0.0175624 -0.0114878 0 
0.0115273 -0.00344501 0 
0.01287 -0.0180263 0 
0.00718933 -0.0201903 0 
-0.00120888 -0.0161566 0 
-0.00588096 -0.01695 0 
-0.00210737 -0.0185603 0 
-0.000857137 -0.0163817 0 
0.0369937 -0.0371086 0 
0.0366912 -0.0368982 0 
0.0193191 -0.0186347 0 
0.0169143 -0.0168891 0 
0.0134568 -0.0232494 0 
0.0132895 -0.0231134 0 
0.012372 -0.0259426 0 
0.0131188 -0.0359163 0 
0.011374 -0.0315997 0 
0.00777259 -0.0232876 0 
0.0228162 -0.0232585 0 
0.0246975 -0.0254981 0 
0.021434 -0.0229306 0 
0.0197155 -0.0223228 0 
0.0219983 -0.0252832 0 
0.0316762 -0.0323294 0 
0.0360845 -0.0363155 0 
0.0278354 -0.0342637 0 
0.0205282 -0.0307482 0 
0.0150378 -0.0259967 0 
0.0230049 -0.0262988 0 
0.0255504 -0.0294154 0 
0.0274146 -0.0310104 0 
0.0333273 -0.0336562 0 
0.0485946 -0.0420052 0 
0.0522155 -0.0443578 0 
0.0388766 -0.0400174 0 
0.0365226 -0.0388106 0 
0.0294483 -0.0338243 0 
0.0229063 -0.0293593 0 
0.0198674 -0.0229073 0 
0.0221772 -0.0256535 0 
0.0251598 -0.0292036 0 
0.02717 -0.0316477 0 